# Force coefficients
# liftDir    : (0.000000e+00 0.000000e+00 1.000000e+00)
# dragDir    : (1.000000e+00 0.000000e+00 0.000000e+00)
# pitchAxis  : (0.000000e+00 1.000000e+00 0.000000e+00)
# magUInf    : 2.000000e+01
# lRef       : 1.420000e+00
# Aref       : 7.500000e-01
# CofR       : (7.200000e-01 0.000000e+00 0.000000e+00)
#
# Time       	Cm           	Cd           	Cl           	Cl(f)        	Cl(r)        
1            	6.499932e+00	3.109670e+00	-4.103195e-02	6.479416e+00	-6.520447e+00
2            	7.152266e+00	3.417571e+00	-4.453979e-02	7.129996e+00	-7.174535e+00
3            	6.527723e+00	3.125619e+00	-6.908218e-02	6.493182e+00	-6.562264e+00
4            	6.133818e+00	2.943116e+00	-8.951621e-02	6.089060e+00	-6.178576e+00
5            	5.868088e+00	2.820439e+00	-9.108679e-02	5.822545e+00	-5.913632e+00
6            	5.695793e+00	2.736963e+00	-9.026457e-02	5.650661e+00	-5.740925e+00
7            	5.529375e+00	2.655031e+00	-7.604674e-02	5.491351e+00	-5.567398e+00
8            	5.386805e+00	2.586445e+00	-6.646834e-02	5.353571e+00	-5.420039e+00
9            	5.251339e+00	2.526212e+00	-7.201688e-02	5.215330e+00	-5.287347e+00
10           	5.148809e+00	2.482754e+00	-7.981326e-02	5.108903e+00	-5.188716e+00
11           	5.067882e+00	2.448591e+00	-8.648440e-02	5.024640e+00	-5.111124e+00
12           	5.011059e+00	2.423077e+00	-9.391199e-02	4.964103e+00	-5.058015e+00
13           	4.956571e+00	2.400887e+00	-1.092135e-01	4.901965e+00	-5.011178e+00
14           	4.909795e+00	2.381137e+00	-1.182750e-01	4.850657e+00	-4.968932e+00
15           	4.859500e+00	2.359398e+00	-1.252555e-01	4.796872e+00	-4.922127e+00
16           	4.807365e+00	2.336540e+00	-1.306081e-01	4.742061e+00	-4.872669e+00
17           	4.758875e+00	2.315696e+00	-1.354779e-01	4.691136e+00	-4.826614e+00
18           	4.724981e+00	2.300857e+00	-1.373758e-01	4.656293e+00	-4.793668e+00
19           	4.701017e+00	2.291241e+00	-1.398112e-01	4.631111e+00	-4.770922e+00
20           	4.688372e+00	2.285418e+00	-1.385699e-01	4.619087e+00	-4.757657e+00
21           	4.682796e+00	2.281809e+00	-1.348797e-01	4.615356e+00	-4.750236e+00
22           	4.689447e+00	2.281639e+00	-1.266593e-01	4.626118e+00	-4.752777e+00
23           	4.704324e+00	2.284326e+00	-1.171594e-01	4.645744e+00	-4.762904e+00
24           	4.731393e+00	2.292950e+00	-1.099708e-01	4.676407e+00	-4.786378e+00
25           	4.772525e+00	2.309529e+00	-1.084297e-01	4.718310e+00	-4.826740e+00
26           	4.826534e+00	2.335806e+00	-1.176985e-01	4.767684e+00	-4.885383e+00
27           	4.897109e+00	2.372190e+00	-1.350367e-01	4.829591e+00	-4.964627e+00
28           	4.985131e+00	2.418701e+00	-1.590652e-01	4.905598e+00	-5.064663e+00
29           	5.085463e+00	2.472734e+00	-1.888687e-01	4.991029e+00	-5.179897e+00
30           	5.193732e+00	2.531096e+00	-2.214387e-01	5.083012e+00	-5.304451e+00
31           	5.302803e+00	2.588391e+00	-2.505626e-01	5.177522e+00	-5.428085e+00
32           	5.401143e+00	2.639450e+00	-2.750657e-01	5.263610e+00	-5.538676e+00
33           	5.480203e+00	2.680916e+00	-2.940432e-01	5.333181e+00	-5.627224e+00
34           	5.521940e+00	2.702759e+00	-2.984341e-01	5.372723e+00	-5.671157e+00
35           	5.530315e+00	2.705772e+00	-2.825563e-01	5.389037e+00	-5.671593e+00
36           	5.511447e+00	2.691889e+00	-2.428419e-01	5.390027e+00	-5.632868e+00
37           	5.472515e+00	2.666283e+00	-1.888886e-01	5.378071e+00	-5.566959e+00
38           	5.425848e+00	2.636806e+00	-1.341567e-01	5.358770e+00	-5.492926e+00
39           	5.379369e+00	2.608802e+00	-8.868025e-02	5.335029e+00	-5.423710e+00
40           	5.339822e+00	2.586175e+00	-5.539720e-02	5.312124e+00	-5.367521e+00
41           	5.314701e+00	2.573796e+00	-3.794076e-02	5.295730e+00	-5.333671e+00
42           	5.298983e+00	2.568805e+00	-3.452429e-02	5.281721e+00	-5.316245e+00
43           	5.282942e+00	2.565755e+00	-4.298772e-02	5.261448e+00	-5.304436e+00
44           	5.271937e+00	2.566188e+00	-5.776803e-02	5.243053e+00	-5.300821e+00
45           	5.267666e+00	2.568953e+00	-6.940078e-02	5.232966e+00	-5.302366e+00
46           	5.271141e+00	2.573082e+00	-7.386018e-02	5.234211e+00	-5.308071e+00
47           	5.280836e+00	2.577858e+00	-7.622627e-02	5.242723e+00	-5.318949e+00
48           	5.291315e+00	2.582713e+00	-8.300860e-02	5.249811e+00	-5.332820e+00
49           	5.301688e+00	2.588470e+00	-9.688805e-02	5.253244e+00	-5.350132e+00
50           	5.314862e+00	2.597861e+00	-1.226724e-01	5.253526e+00	-5.376199e+00
51           	5.336708e+00	2.614038e+00	-1.620093e-01	5.255704e+00	-5.417713e+00
52           	5.365692e+00	2.635871e+00	-2.158798e-01	5.257752e+00	-5.473632e+00
53           	5.402234e+00	2.663267e+00	-2.833046e-01	5.260582e+00	-5.543886e+00
54           	5.446455e+00	2.694895e+00	-3.590708e-01	5.266920e+00	-5.625991e+00
55           	5.494903e+00	2.728488e+00	-4.394828e-01	5.275162e+00	-5.714644e+00
56           	5.542025e+00	2.759797e+00	-5.155163e-01	5.284267e+00	-5.799783e+00
57           	5.588276e+00	2.787147e+00	-5.726848e-01	5.301933e+00	-5.874618e+00
58           	5.628722e+00	2.805350e+00	-5.873396e-01	5.335052e+00	-5.922392e+00
59           	5.664602e+00	2.813029e+00	-5.460880e-01	5.391558e+00	-5.937646e+00
60           	5.711668e+00	2.815838e+00	-4.484962e-01	5.487420e+00	-5.935916e+00
61           	5.776498e+00	2.817399e+00	-3.084746e-01	5.622261e+00	-5.930736e+00
62           	5.836195e+00	2.810560e+00	-1.494168e-01	5.761486e+00	-5.910903e+00
63           	5.856618e+00	2.784040e+00	6.869546e-03	5.860053e+00	-5.853183e+00
64           	5.835311e+00	2.744051e+00	1.329318e-01	5.901777e+00	-5.768845e+00
65           	5.789027e+00	2.700392e+00	2.221901e-01	5.900122e+00	-5.677932e+00
66           	5.737953e+00	2.664709e+00	2.681552e-01	5.872031e+00	-5.603876e+00
67           	5.699052e+00	2.643574e+00	2.791007e-01	5.838603e+00	-5.559502e+00
68           	5.672558e+00	2.635865e+00	2.593227e-01	5.802220e+00	-5.542897e+00
69           	5.646398e+00	2.634182e+00	2.161721e-01	5.754484e+00	-5.538312e+00
70           	5.604199e+00	2.628288e+00	1.606828e-01	5.684540e+00	-5.523857e+00
71           	5.542860e+00	2.614942e+00	1.010472e-01	5.593383e+00	-5.492336e+00
72           	5.473510e+00	2.596753e+00	4.677663e-02	5.496898e+00	-5.450121e+00
73           	5.408889e+00	2.577621e+00	2.129910e-03	5.409954e+00	-5.407824e+00
74           	5.351762e+00	2.559420e+00	-3.604197e-02	5.333742e+00	-5.369783e+00
75           	5.306197e+00	2.545078e+00	-6.779311e-02	5.272300e+00	-5.340093e+00
76           	5.278667e+00	2.538571e+00	-9.494614e-02	5.231194e+00	-5.326140e+00
77           	5.274530e+00	2.541772e+00	-1.161597e-01	5.216450e+00	-5.332610e+00
78           	5.296119e+00	2.555374e+00	-1.314871e-01	5.230376e+00	-5.361863e+00
79           	5.336321e+00	2.576776e+00	-1.437497e-01	5.264446e+00	-5.408196e+00
80           	5.385789e+00	2.601535e+00	-1.526041e-01	5.309487e+00	-5.462092e+00
81           	5.439548e+00	2.627225e+00	-1.571538e-01	5.360971e+00	-5.518125e+00
82           	5.496017e+00	2.652905e+00	-1.560957e-01	5.417969e+00	-5.574065e+00
83           	5.556542e+00	2.678855e+00	-1.473326e-01	5.482875e+00	-5.630208e+00
84           	5.620609e+00	2.704577e+00	-1.290529e-01	5.556082e+00	-5.685135e+00
85           	5.685393e+00	2.728976e+00	-1.009583e-01	5.634914e+00	-5.735872e+00
86           	5.742599e+00	2.748741e+00	-6.456740e-02	5.710315e+00	-5.774883e+00
87           	5.785387e+00	2.760910e+00	-2.074340e-02	5.775015e+00	-5.795758e+00
88           	5.808386e+00	2.763077e+00	2.881813e-02	5.822795e+00	-5.793977e+00
89           	5.805566e+00	2.753182e+00	7.880209e-02	5.844967e+00	-5.766165e+00
90           	5.772663e+00	2.730450e+00	1.220617e-01	5.833694e+00	-5.711632e+00
91           	5.713357e+00	2.697903e+00	1.513783e-01	5.789046e+00	-5.637667e+00
92           	5.638883e+00	2.662123e+00	1.614813e-01	5.719624e+00	-5.558142e+00
93           	5.562668e+00	2.630400e+00	1.508373e-01	5.638086e+00	-5.487249e+00
94           	5.494898e+00	2.607719e+00	1.223830e-01	5.556090e+00	-5.433707e+00
95           	5.443818e+00	2.596684e+00	8.291750e-02	5.485277e+00	-5.402360e+00
96           	5.420953e+00	2.601676e+00	3.675478e-02	5.439331e+00	-5.402576e+00
97           	5.413327e+00	2.614734e+00	-1.082146e-02	5.407917e+00	-5.418738e+00
98           	5.412639e+00	2.629608e+00	-5.616808e-02	5.384555e+00	-5.440723e+00
99           	5.405359e+00	2.639020e+00	-9.766591e-02	5.356526e+00	-5.454192e+00
100          	5.402032e+00	2.646660e+00	-1.291145e-01	5.337475e+00	-5.466590e+00
