# vtk DataFile Version 2.0
sampleSurface
ASCII
DATASET POLYDATA
POINTS 11763 double
-6.63336e-12 0 2.47518e-12
9.86781e-12 0 0.0046875
-0.0103164 0 0.00255604
0.0103164 -8.67362e-19 0.00255604
-0.015625 0 3.0071e-12
0.015625 0 2.7808e-12
-0.015625 0 0.0046875
0.015625 0 0.0046875
-0.0104176 0 0.0154932
0.0104176 0 0.0154932
-6.2524e-12 1.61559e-27 0.0202803
-0.0209653 0 0.00255604
0.0209653 0 0.00255604
-0.015625 0 0.0202803
0.015625 0 0.0202803
0.0208326 8.67362e-19 0.0154932
-0.0208326 0 0.0154933
-0.0104176 0 0.0258868
0.0104176 0 0.0258868
-0.03125 0 2.38968e-12
0.03125 1.61559e-27 1.99892e-12
0.03125 0 0.0046875
-0.03125 -4.28745e-19 0.0046875
0.0208326 0 0.0258868
-0.0208326 0 0.0258869
6.09475e-12 0 0.0358731
0.03125 0 0.0202803
-0.03125 -1.45781e-18 0.0202805
0.015625 -8.07794e-28 0.0358731
-0.015625 0 0.0358731
0.03125 0 0.0358731
-0.03125 8.07794e-28 0.0358734
-0.0478046 0 0.00327394
0.0478046 -1.73472e-18 0.00327394
-0.0468674 -1.73472e-18 0.0220717
0.046867 0 0.0221037
0.0156232 1.73472e-18 0.0519171
-0.0156232 -8.67362e-19 0.0519172
-0.0625 3.23117e-27 4.5491e-12
0.0625 0 3.4046e-12
0.0625 -8.7765e-19 0.00736603
-0.0625 3.23117e-27 0.00736603
4.11134e-12 0 0.0670587
-0.015625 0 0.0670549
0.015625 0 0.0670549
-0.0468836 8.67362e-19 0.053318
0.0468831 0 0.0533796
0.0625 0 0.0385149
-0.0625 0 0.0385152
0.03125 0 0.0670587
-0.03125 0 0.0670593
-0.0104167 8.67362e-19 0.0774514
0.0104168 -8.67362e-19 0.0774515
-0.0784886 1.73472e-18 0.00408834
0.0784886 1.73472e-18 0.00408834
0.0208333 0 0.0774515
-0.0208333 8.67362e-19 0.0774516
-0.0781233 -1.73472e-18 0.0237617
0.0781233 0 0.0237617
2.61865e-13 -2.01948e-28 0.0826515
0.046875 2.42338e-28 0.0696576
-0.046875 0 0.0696584
-0.015625 0 0.0826484
0.015625 -2.01948e-28 0.0826484
0.03125 -2.01948e-28 0.0826515
-0.03125 -2.01948e-28 0.0826523
-0.0104167 0 0.087847
0.0104167 8.67362e-19 0.0878471
0.0416623 0 0.07886
-0.0416632 0 0.0789113
0.0208333 -8.67362e-19 0.0878471
-0.0208333 0 0.0878473
0.0625 0 0.0696637
-0.0625 -1.61559e-27 0.0696644
-0.09375 0 8.31149e-12
0.09375 3.23117e-27 5.24318e-12
-0.09375 0 0.00865466
0.09375 0 0.00865466
0.0520798 0 0.0797251
-0.0520807 -8.67362e-19 0.0797764
-0.0781298 -8.67362e-19 0.0549157
0.0781281 -8.67362e-19 0.054971
0.046875 0 0.0852333
-0.046875 4.03897e-28 0.0852343
1.89257e-12 -2.01948e-28 0.0982443
0.0416622 -8.67362e-19 0.0892496
-0.0416632 0 0.0893011
0.015625 0 0.0982418
-0.015625 0 0.0982418
0.09375 -1.61559e-27 0.0397859
-0.09375 0 0.0397861
0.03125 0 0.0982443
-0.03125 0 0.0982452
0.0520798 8.67362e-19 0.0901087
-0.0520808 0 0.0901601
0.078125 0 0.0709099
0.0625 0 0.0852382
-0.0625 0 0.0852389
-0.00781252 -8.67362e-19 0.106039
-0.0234375 0 0.106039
0.0729152 8.67362e-19 0.0807205
-0.109509 -1.73472e-18 0.00448098
0.109509 0 0.00448098
0.046875 -2.42338e-28 0.100809
-0.046875 0 0.10081
0.109375 -8.67362e-19 0.0245096
-0.109374 0 0.0245234
-1.45339e-12 -2.01948e-28 0.113837
-0.039061 -8.67362e-19 0.107318
-0.015625 0 0.113835
0.0156414 3.46945e-18 0.11424
-0.0781224 0 0.08613
0.0833322 0 0.0811369
0.078125 -4.03897e-28 0.0864769
0.0729152 -8.67362e-19 0.0911012
0.09375 0 0.0709171
-0.09375 1.61559e-27 0.0709174
-0.03125 0 0.113838
0.0625 4.03897e-28 0.100813
-0.0625 0 0.100814
-0.0546874 -8.67362e-19 0.108597
-0.00781252 0 0.121632
0.109377 -1.73472e-18 0.0556441
-0.109374 -3.46945e-18 0.0556628
0.0833322 8.67362e-19 0.0915146
-0.0234374 8.67362e-19 0.121632
0.0468479 0 0.115627
-0.125 0 0
0.125 3.23117e-27 6.83104e-12
-0.125 7.77562e-19 0.00916888
0.125 0 0.00916888
-0.046875 2.01948e-28 0.116385
0.09375 -2.42338e-28 0.0864827
0.078125 2.01948e-28 0.102043
-0.078125 4.03897e-28 0.102044
-0.0390611 8.67362e-19 0.122902
2.06739e-12 0 0.12943
-0.0703118 0 0.109212
-0.015625 2.01948e-28 0.129428
0.125 3.23117e-27 0.0402929
-0.125 6.46235e-27 0.0402931
0.0625 2.42338e-28 0.116387
-0.0625 -4.03897e-28 0.116388
0.03125 0 0.12943
-0.03125 5.79927e-19 0.12943
0.0729152 -8.67362e-19 0.111861
-0.0546875 0 0.124172
0.09375 4.03897e-28 0.102048
-0.09375 0 0.102049
-0.0859374 -8.67362e-19 0.109827
-0.109377 -8.67362e-19 0.086797
0.109374 8.67362e-19 0.0868157
0.0833322 -8.67362e-19 0.112272
-0.046875 0 0.13196
-0.0104318 -8.67362e-19 0.140139
-0.140665 1.73472e-18 0.00463112
0.140665 1.73472e-18 0.00463112
0.078125 -2.01948e-28 0.11761
-0.078125 -4.03897e-28 0.117611
-0.0208473 0 0.140139
0.0729152 8.67362e-19 0.122242
0.140625 0 0.0248235
-0.140625 8.67362e-19 0.0248235
-0.0703118 8.67362e-19 0.124783
0.125 -1.61559e-27 0.071417
-0.125 0 0.0714174
-1.56732e-12 2.01948e-28 0.145023
-0.015625 -2.01948e-28 0.145021
0.0625 0 0.131961
-0.0625 0 0.131963
0.0156067 8.67362e-19 0.14557
-0.0416334 8.67362e-19 0.141404
0.0833323 0 0.122649
-0.03125 8.68452e-19 0.145023
0.109375 2.42338e-28 0.102536
0.09375 3.02923e-28 0.117614
-0.09375 0 0.117615
-0.0104318 8.67362e-19 0.150533
-0.140625 0 0.055945
0.140625 -1.73472e-18 0.05595
-0.0520507 -8.67362e-19 0.142245
-0.0208473 8.67362e-19 0.150533
-0.0859375 0 0.125394
0.104168 8.67362e-19 0.11268
0.0468783 8.67362e-19 0.146677
0.078125 0 0.133176
-0.078125 -4.03897e-28 0.133177
-0.046875 -2.01948e-28 0.147535
-0.15625 0 1.96872e-11
0.15625 -3.23117e-27 8.55705e-12
-0.15625 0 0.00932914
0.15625 -3.23117e-27 0.00932914
-0.0416334 0 0.151793
-0.0625 0 0.147538
-0.0729162 8.67362e-19 0.143069
1.66834e-12 0 0.160616
0.114581 -8.67362e-19 0.112843
-0.109374 0 0.117919
0.109375 -2.01948e-28 0.118099
0.104168 0 0.123053
-0.0520507 8.67362e-19 0.152628
-0.015625 0 0.160614
0.015625 0 0.160614
0.15625 -3.23117e-27 0.040451
-0.15625 -6.46235e-27 0.0404513
0.125 0 0.102541
-0.125 0 0.102542
0.09375 4.03897e-28 0.13318
-0.09375 0 0.13318
0.03125 0 0.160616
-0.03125 -5.87648e-19 0.160616
0.140625 1.73472e-18 0.0870624
-0.140625 1.73472e-18 0.0870637
-0.0833324 -8.67362e-19 0.143473
0.0781175 -1.73472e-18 0.148353
-0.078125 0 0.148744
0.114581 -8.67362e-19 0.123215
-0.046875 2.01948e-28 0.16311
-0.0729163 0 0.153448
0.0104166 0 0.171396
-0.0104186 -8.67362e-19 0.171442
0.15625 0 0.0715728
-0.15625 0 0.0715734
-0.171884 -1.73472e-18 0.00467554
0.171884 1.73472e-18 0.00467554
0.125 2.01948e-28 0.118103
0.0208335 0 0.171396
-0.0208333 -8.67362e-19 0.171442
0.109375 1.21169e-28 0.133662
-0.171875 -8.67362e-19 0.024912
0.171875 1.73472e-18 0.0249119
0.140625 0 0.102536
-0.0390595 -4.33681e-19 0.169946
0.0625 4.03897e-28 0.16311
-0.0625 4.03897e-28 0.163113
-0.0833323 8.67362e-19 0.15385
-0.09375 0 0.148747
1.63183e-12 -2.01948e-28 0.176208
0.135417 0 0.112938
0.015625 0 0.176207
-0.015625 -2.01948e-28 0.176207
-0.03125 0 0.176208
0.03125 0 0.176208
-0.0546874 0 0.170888
0.171875 -8.67362e-19 0.0560323
-0.171875 0 0.0560338
-0.078125 0 0.16431
0.0104166 -8.67362e-19 0.181791
-0.0104186 0 0.181835
0.0208335 0 0.181791
-0.125 8.07794e-28 0.133666
0.125 0 0.133666
-0.0208333 0 0.181835
0.135417 0 0.123313
0.140625 0 0.118099
-0.140625 0 0.118174
0.0468678 -1.73472e-18 0.177876
0.145833 8.67362e-19 0.112989
-0.046875 2.01948e-28 0.178685
0.109372 -1.73472e-18 0.149045
-0.109372 -1.73472e-18 0.149051
0.15625 8.07794e-28 0.102695
-0.15625 0 0.102696
-0.1875 0 3.04874e-11
0.1875 -6.46235e-27 0
-0.1875 -1.38998e-18 0.00936721
0.1875 4.03615e-19 0.00936721
0.09375 -8.07794e-28 0.164311
-0.09375 0 0.164313
-0.0625 0 0.178687
-0.0390595 0 0.185528
0.145833 8.67362e-19 0.123364
-1.2018e-12 2.01948e-28 0.191801
0.1875 3.23117e-27 0.0404886
-0.1875 0 0.0404888
-0.015625 2.01948e-28 0.1918
0.015625 -2.01948e-28 0.1918
0.171875 -1.73472e-18 0.0871523
-0.171875 -1.73472e-18 0.0871562
0.140625 -1.00974e-28 0.133661
-0.140625 0 0.133662
-0.0546875 8.67362e-19 0.186463
-0.03125 0 0.191801
0.03125 0 0.191801
0.125 -8.07794e-29 0.149228
-0.125 2.52916e-19 0.149229
0.0781237 0 0.179411
-0.0781224 -1.73472e-18 0.179517
0.15625 4.03897e-28 0.118256
0.135417 8.67362e-19 0.144063
-0.135417 -8.67362e-19 0.144066
-0.046875 4.03897e-28 0.19426
0.1875 -4.44274e-19 0.0716099
-0.1875 -1.24911e-18 0.0716103
0.0104182 0 0.202676
-0.203127 0 0.00468556
0.203127 -3.46945e-18 0.00468556
0.0208344 0 0.202676
0.0625 -4.03897e-28 0.194259
-0.0625 -4.03897e-28 0.194261
-0.203125 -1.73472e-18 0.0249319
0.203125 -1.73472e-18 0.0249319
0.145833 -8.67362e-19 0.144113
-0.145833 -8.67362e-19 0.144116
0.140625 -2.01948e-28 0.149224
-0.140625 1.61559e-27 0.149225
0.135417 0 0.154438
-0.135417 0 0.154441
0.15625 0 0.133817
-0.15625 0 0.133818
0.125 0 0.16479
-0.125 0 0.164791
1.74858e-12 2.01948e-28 0.207394
-0.0416842 8.67362e-19 0.203749
0.015625 -2.01948e-28 0.207393
-0.0155898 1.73472e-18 0.208024
0.171875 8.67362e-19 0.118275
-0.171875 0 0.118278
-0.03125 3.16494e-19 0.207394
0.03125 0 0.207394
-0.203125 -8.67362e-19 0.0560534
0.203125 0 0.0560534
0.109375 8.67362e-19 0.180153
-0.109374 8.67362e-19 0.180183
-0.052104 8.67362e-19 0.204566
0.145833 0 0.154488
-0.145833 0 0.154491
0.0104182 0 0.213071
0.1875 0 0.102731
-0.1875 0 0.102732
0.0208344 1.73472e-18 0.213071
0.0468516 3.46945e-18 0.209097
-0.046875 -4.03897e-28 0.209834
0.15625 1.00974e-28 0.149377
-0.15625 0 0.149379
0.140625 0 0.164787
-0.140625 -1.61559e-27 0.164788
0.09375 -4.03897e-28 0.195442
-0.09375 -8.07794e-28 0.195443
0.171875 0 0.133849
-0.0416842 -8.67362e-19 0.21414
-0.21875 0 5.17528e-11
0.21875 0 1.34296e-11
-0.0625 0 0.209836
-0.21875 1.42589e-18 0.00937401
0.21875 -1.06512e-18 0.00937402
-0.125 1.36882e-18 0.180352
0.166667 0 0.144206
0.203125 -1.73472e-18 0.0871747
-0.203125 0 0.0871748
-0.052104 0 0.214951
-0.135417 -8.67362e-19 0.175191
0.21875 0 0.0404953
-0.21875 2.58494e-26 0.0404954
-1.27391e-12 0 0.222987
0.015625 0 0.222986
0.0781235 0 0.210558
-0.0781163 1.73472e-18 0.210603
-0.03125 -4.03897e-28 0.222987
0.03125 2.01948e-28 0.222987
-0.15625 -1.61559e-27 0.16494
0.15625 0 0.16494
0.166667 0 0.154581
-0.171875 -8.67362e-19 0.149402
0.171875 0 0.14941
-0.145833 0 0.17524
0.177083 0 0.144218
-0.140625 0 0.18035
0.140624 -8.67362e-19 0.180427
-0.135417 0 0.185565
0.21875 3.23117e-27 0.0716167
-0.21875 0 0.0716169
-0.046875 -4.03897e-28 0.225409
0.1875 0 0.133853
[...]
POINT_DATA 11763
FIELD attributes 1
p 1 11763 float
-24.0328 -24.0343 -23.9195 -24.149 -23.8607 -24.2267 -23.8673 -24.2232 -23.9266 -24.1437
-24.0676 -23.7934 -24.289 -23.914 -24.2339 -24.2644 -23.8075 -23.9743 -24.1752 -23.6987
-24.3627 -24.3525 -23.7083 -24.2663 -23.8766 -24.0828 -24.3406 -23.7614 -24.2393 -23.9412
-24.3601 -23.7686 -23.5574 -24.4804 -23.5816 -24.4553 -24.2489 -23.9431 -23.3633 -24.6049
-24.6003 -23.3763 -24.1293 -23.973 -24.2786 -23.621 -24.5214 -24.6259 -23.4136 -24.414
-23.8159 -24.0476 -24.2566 -23.1709 -24.7316 -24.3491 -23.9467 -23.187 -24.7406 -24.1562
-24.5429 -23.6498 -24.0003 -24.2971 -24.4327 -23.8503 -24.0763 -24.2747 -24.5202 -23.731
-24.3624 -23.977 -24.6764 -23.4713 -22.9836 -24.8512 -22.9911 -24.8583 -24.6084 -23.6115
-23.2655 -24.7863 -24.5567 -23.6853 -24.1971 -24.5355 -23.7751 -24.3271 -24.0539 -24.8861
-23.0362 -24.4662 -23.9072 -24.6201 -23.6625 -24.7983 -24.6894 -23.5249 -24.1481 -24.0021
-24.7742 -22.7969 -24.9713 -24.5885 -23.7557 -24.9959 -22.8074 -24.2063 -23.8614 -24.0887
-24.3606 -23.3182 -24.8552 -24.8082 -24.7912 -24.92 -23.1038 -23.9446 -24.7265 -23.5786
-23.6974 -24.1701 -25.0212 -22.8847 -24.8688 -24.0345 -24.6234 -22.6127 -25.0777 -22.6167
-25.0886 -23.7906 -24.9195 -24.8462 -23.4064 -23.8816 -24.2651 -23.529 -24.1268 -25.1132
-22.6564 -24.7676 -23.6231 -24.5359 -23.9768 -24.838 -23.7209 -24.9752 -23.1942 -23.3343
-22.9469 -25.0492 -24.9244 -23.8236 -24.2043 -22.4286 -25.1843 -24.8785 -23.4403 -24.1044
-24.8645 -25.2081 -22.4335 -23.5456 -25.1406 -22.7196 -24.3046 -24.1861 -24.8015 -23.6507
-24.45 -23.9035 -24.9464 -24.03 -25.0897 -25.0072 -23.2719 -24.2303 -22.4998 -25.2276
-23.7915 -24.1318 -23.352 -25.0834 -24.713 -24.9228 -23.4674 -23.8815 -22.2614 -25.2825
-22.2625 -25.2915 -23.9324 -23.7037 -23.558 -24.3635 -25.1572 -23.0389 -25.1193 -25.1116
-23.8208 -24.2328 -24.5156 -25.3116 -22.2931 -25.201 -22.7915 -25.0565 -23.274 -24.6347
-24.078 -25.2641 -22.547 -23.4207 -24.9736 -23.5316 -25.1844 -23.9367 -23.5983 -24.4919
-24.3119 -25.3426 -22.3398 -22.0941 -25.3807 -25.2357 -24.5861 -24.2162 -25.1672 -22.0936
-25.3969 -25.3051 -24.0471 -24.8972 -23.7582 -23.4826 -23.3507 -24.4221 -25.3037 -24.5647
-24.2963 -24.14 -24.6798 -23.883 -25.4138 -22.1454 -23.5875 -24.5096 -24.3366 -24.6095
-22.8874 -25.2932 -24.2573 -25.3346 -25.3368 -22.6331 -24.8187 -25.3689 -23.9979 -25.2227
-23.133 -25.4076 -22.3944 -21.9341 -25.4713 -21.9342 -25.4762 -25.1548 -23.4008 -23.8572
-24.1058 -25.4004 -24.4743 -25.4905 -21.9628 -24.3464 -24.6171 -25.4648 -22.1668 -25.3951
-22.6971 -23.9531 -24.2121 -24.7511 -25.3508 -22.9318 -25.083 -23.658 -25.4348 -25.4075
-22.7922 -24.0646 -25.5276 -21.9893 -24.6105 -21.7742 -25.5618 -24.7155 -25.0228 -23.9022
-21.775 -25.5672 -25.4767 -22.6529 -25.4446 -22.7612 -25.4432 -22.8449 -25.5068 -22.4814
-25.4015 -23.0199 -24.5692 -24.1735 -24.6956 -24.4289 -25.5518 -22.2306 -24.2802 -24.8156
-21.8371 -25.5841 -25.3398 -23.2878 -24.0536 -25.5106 -22.702 -24.6638 -25.6002 -22.0117
-24.7587 -24.956 -24.1509 -25.5542 -22.563 -25.5048 -22.8309 -25.2889 -23.5557 -25.6046
-24.2185 -21.59 -25.6551 -23.9973 -21.5916 -25.6563 -23.074 -25.6131 -25.6477 -21.8079
-24.1101 -22.9407 -25.6554 -21.6363 -24.6253 -24.7664 -25.2334 -23.8197 -24.3595 -24.8952
-22.6104 -25.6276 -25.6535 -22.3229 -25.647 -22.7985 -25.6713 -22.9045 -25.5791 -22.9682
-25.6916 -21.66 -24.2221 -25.6981 -22.0832 -24.7261 -23.1662 -25.54 -24.8694 -25.1681
-24.0561 -21.4059 -25.7483 -21.8414 -25.7365 -25.7121 -21.4118 -25.7485 -22.85 -25.4989
-23.457 -22.416 -25.7224 -24.3216 -24.7223 -22.694 -25.7012 -24.8368 -25.7371 -24.5677
-24.4266 -24.9494 -21.5213 -25.7218 -22.9626 -24.2064 -25.7753 -21.6497 -25.7507 -22.5221
-25.0977 -25.445 -23.7236 -24.3043 -24.8148 -24.9404 -24.3712 -24.1577 -25.815 -22.388
-22.4854 -25.788 -25.797 -22.5689 -22.2024 -25.826 -21.2247 -25.7999 -21.4736 -25.813
-21.2351 -25.7975 -22.7628 -25.773 -24.269 -25.8459 -21.9377 -21.3349 -25.7716 -23.0505
-25.742 -23.9887 -25.3852 -24.7904 -24.6737 -24.9198 -24.5272 -25.0538 -25.8743 -21.7038
-25.8569 -22.416 -23.3407 -25.7037 -21.318 -25.8393 -22.2933 -25.8876 -22.55 -25.865
-25.2151 -24.3991 -25.917 -21.4759 -25.904 -24.7746 -24.8956 -22.8305 -24.6399 -25.0324
-25.3468 -24.2379 -25.9375 -22.6775 -25.6616 -23.6289 -24.5179 -25.1749 -25.5103 -24.8895
-24.3643 -25.3273 -24.7582 -25.0216 -21.3133 -25.9315 -22.3316 -25.9779 -25.9845 -24.6329
-25.1566 -25.9703 -22.0681 -22.5118 -25.9931 -25.9618 -22.6429 -22.7384 -26.0007 -21.817
-25.6273 -23.9116 -22.9333 -25.9377 -25.308 -24.5018 -25.5148 -21.5602 -26.0108 -24.8724
-25.0205 -24.7508 -26.039 -25.1437 -25.4517 -24.371 -25.9592 -21.168 -22.5935 -23.2261
-25.912 -25.6089 -24.6329 -25.2851 -26.0621 -22.4371 -26.0677 -25.9032 -20.8622 -21.3401
-26.0309 -26.0559 -24.1911 -25.6168 -25.8909 -20.9036 -22.7328 -24.4877 -25.4405 -25.0005
-24.8469 -25.1215 -26.103 -23.5302 -25.8874 -24.741 -25.2753 -25.5882 -22.9982 -25.7263
-22.8548 -25.6788 -26.0517 -21.1349 -25.9996 -20.9704 -25.43 -24.6126 -26.1667 -22.1979
-26.1456 -26.1609 -21.9508 -26.1591 -25.5779 -24.4575 -22.5007 -26.1522 -25.8624 -23.8374
-21.702 -26.1569 -22.704 -24.7338 -25.4163 -26.135 -22.8176 -22.8868 -25.7314 -21.4563
-26.1583 -24.5921 -25.5732 -26.2164 -26.0792 -20.9634 -23.1072 -26.1244 -24.9696 -25.4226
-24.8269 -25.2598 -25.8546 -24.1202 -25.7155 -26.2317 -22.7597 -22.2959 -26.2419 -21.1905
-26.1601 -22.5907 -26.252 -25.5571 -24.719 -26.1132 -23.4281 -25.8515 -22.4064 -26.2818
-26.0092 -25.7064 -24.5898 -22.8882 -26.1048 -20.8023 -20.4792 -26.0154 -24.8392 -26.0149
-20.5082 -25.5373 -26.1769 -20.9731 -24.3972 -25.8459 -23.7414 -26.1129 -22.085 -26.3391
-21.8352 -26.3299 -25.6968 -22.2676 -26.3483 -24.7068 -22.3683 -26.3374 -26.0299 -22.4549
-26.3578 -21.6028 -26.3164 -24.9657 -25.976 -25.2461 -25.1255 -22.6733 -26.3449 -25.8433
-25.5292 -26.1928 -26.1158 -20.7521 -26.1189 -20.5768 -26.2533 -21.3769 -26.3096 -24.839
-25.6822 -26.3371 -22.9978 -24.0559 -25.9703 -22.2956 -26.4146 -26.1291 -25.8338 -24.69
-25.2453 -25.0979 -26.4262 -22.173 -26.4291 -26.1134 -24.9716 -26.3135 -21.1096 -22.4468
-26.4342 -26.2764 -23.3219 -26.3451 -25.666 -25.9738 -24.5312 -26.2467 -26.4589 -26.2113
-20.6476 -26.1897 -25.8254 -24.8343 -22.7618 -26.3538 -26.1115 -24.3482 -25.098 -22.5889
-20.8097 -26.2943 -25.3533 -25.5045 -25.2362 -26.3707 -23.6439 -25.6893 -26.4113 -26.4748
-26.5111 -26.5027 -21.9482 -26.527 -24.9769 -25.8213 -21.7122 -26.4932 -26.0186 -24.6662
-26.3617 -22.2289 -26.5361 -26.2366 -26.3969 -22.4226 -25.9634 -26.473 -21.5 -26.1192
-24.5507 -26.5431 -22.5647 -26.2327 -24.8359 -26.3029 -26.3963 -20.6194 -25.2275 -25.3674
-22.6723 -26.4272 -26.4721 -26.4962 -25.109 -23.9666 -26.367 -25.8256 -26.128 -24.6441
-20.0962 -26.5699 -26.1275 -22.892 -26.555 -26.4764 -21.2712 -25.9683 -20.1488 -26.1489
-24.9913 -26.4873 -26.1069 -26.5744 -22.5199 -26.2417 -24.4882 -24.7626 -26.5729 -26.609
-25.2357 -21.0429 -26.4682 -25.5178 -26.4792 -26.5875 -23.2175 -25.3766 -25.684 -22.3568
-26.6399 -26.3154 -26.1977 -24.6457 -25.8155 -26.572 -26.4568 -26.2574 -25.103 -25.9684
-26.6619 -24.2891 -26.3814 -22.6807 -26.4336 -20.7975 -26.1135 -23.5456 -26.5933 -24.9638
-26.6466 -25.3769 -25.5266 -25.6631 -22.9819 -26.6673 -26.5343 -25.8117 -22.8239 -21.8366
-26.6843 -26.2678 -24.7805 -25.9632 -26.7108 -26.5316 -22.119 -26.7074 -20.2256 -26.6536
-21.5668 -26.3295 -26.7307 -26.1166 -25.2467 -26.4087 -22.4481 -26.7389 -26.5107 -26.7112
-26.3992 -24.6007 -26.637 -23.8776 -26.6262 -21.3513 -25.1534 -25.3918 -22.6652 -25.6828
-25.5375 -25.8266 -26.4916 -21.154 -26.7556 -22.7841 -26.6135 -25.9739 -26.7745 -22.8773
-26.5596 -26.3135 -25.2335 -26.1207 -24.9343 -26.4847 -26.7583 -26.75 -26.7743 -26.2599
-26.4114 -24.8122 -26.5879 -20.8928 -23.1062 -26.7972 -26.4123 -26.3483 -25.0823 -26.8136
-25.3432 -25.5471 -25.69 -25.8482 -24.2046 -26.6549 -26.5627 -22.7134 -25.9785 -25.2438
-26.428 -24.9056 -19.6973 -26.2152 -26.8321 -22.5771 -26.8475 -26.2275 -19.7221 -26.1404
-26.5421 -26.5977 -26.2624 -26.8665 -23.4442 -26.8536 -26.4183 -26.7906 -26.5636 -24.7407
-25.0271 -26.9083 -22.8809 -26.6826 -26.6868 -26.8494 -25.5433 -26.5285 -26.419 -25.846
-26.5045 -24.9063 -25.6886 -25.9717 -26.6563 -26.9048 -26.8512 -21.7157 -26.1429 -22.0392
-26.8882 -24.525 -26.7029 -26.337 -19.7875 -26.9152 -20.367 -25.4076 -26.262 -26.5158
-26.6227 -26.9163 -26.8267 -22.3438 -26.9116 -23.7887 -26.8725 -21.4472 -23.2071 -26.9398
-26.7932 -21.1793 -23.0355 -26.9384 -26.4262 -26.8282 -26.6982 -25.2374 -26.8134 -26.589
-22.6579 -26.9718 -26.7758 -21.0331 -26.7717 -25.561 -26.5629 -25.0526 -26.9033 -27.0053
-26.7624 -26.419 -25.7332 -25.8413 -22.8676 -26.9822 -23.5932 -26.5708 -26.5036 -26.9799
-26.723 -27.0189 -23.0105 -26.9291 -24.1267 -25.4004 -26.7104 -24.8722 -26.9803 -23.1155
-27.0415 -25.6923 -26.6887 -26.9313 -25.9768 -26.1561 -25.8454 -27.0341 -26.8331 -24.6805
-26.8903 -27.0296 -23.7342 -23.3445 -27.0649 -23.895 -27.0256 -26.6584 -25.2192 -26.4587
-25.563 -26.8606 -26.9949 -22.9679 -26.4973 -19.9006 -22.8062 -27.092 -25.8315 -26.8257
-25.9109 -25.0966 -26.4188 -27.1046 -24.4673 -26.9591 -25.4025 -27.0985 -23.5774 -27.1241
-26.7903 -26.7372 -21.984 -26.6045 -25.1938 -27.1309 -23.7008 -25.7139 -27.062 -26.9924
-21.3141 -27.1527 -23.1296 -27.0342 -22.2774 -27.1119 -21.6643 -24.8431 -19.2984 -26.3028
-26.7539 -27.061 -27.1367 -23.7931 -26.9756 -21.0805 -27.1522 -25.575 -25.0145 -27.1745
-26.9792 -26.3393 -19.3392 -24.7037 -25.3195 -22.5742 -27.1526 -26.7187 -26.4907 -26.9357
-27.1895 -25.8604 -25.1998 -26.1581 -25.9807 -23.4618 -27.2244 -27.199 -23.6291 -26.5878
-23.2742 -26.7042 -27.0062 -24.8131 -26.8954 -24.0423 -27.1725 -26.4835 -26.4275 -22.9015
-27.237 -25.726 -20.5951 -26.8562 -24.9567 -27.2706 -26.7656 -27.2271 -24.6307 -23.123
-26.8122 -25.5572 -27.2225 -24.8213 -27.2636 -23.8203 -27.3068 -23.2471 -27.0275 -26.7752
-25.3759 -26.577 -19.4364 -25.8882 -26.4893 -23.3307 -27.0142 -24.3958 -27.2348 -27.3
-27.3542 -26.7509 -25.7241 -27.0373 -25.1849 -26.9692 -23.5785 -27.3779 -26.714 -20.0807
-26.9211 -23.2063 -25.9992 -25.5472 -24.0003 -26.1717 -23.0462 -27.3811 -26.5111 -24.1721
-21.6196 -27.2157 -24.9802 -27.39 -27.1742 -21.3367 -26.8707 -22.2124 -27.267 -21.9188
-27.3075 -27.1302 -25.3596 -26.8027 -27.4279 -26.5671 -25.8824 -23.8247 -26.8188 -22.4951
-27.3777 -24.7828 -27.2811 -26.49 -27.4615 -23.3534 -25.7256 -26.6672 -27.431 -23.9797
-26.7879 -27.0803 -27.4345 -27.067 -27.0396 -22.7969 -27.4432 -25.5459 -24.0921 -26.012
-25.1634 -24.5833 -27.4941 -26.9856 -18.8655 -26.3496 -26.3659 -18.8842 -25.0279 -25.3618
-26.9308 -25.9048 -27.5527 -23.7612 -27.5443 -26.5569 -23.943 -23.1519 -27.553 -19.573
-26.6555 -26.8807 -24.7635 -24.3356 -27.4916 -25.7224 -26.1911 -27.515 -27.3327 -25.1279
-26.5285 -27.1948 -27.5094 -26.8444 -26.4652 -18.9516 -27.1573 -27.619 -25.5561 -26.0257
-27.1048 -25.2703 -24.5182 -24.9224 -27.6243 -23.5051 -26.7978 -27.1193 -27.6047 -24.1276
-27.051 -25.9002 -27.5945 -25.1348 -27.6682 -26.6427 -26.9917 -27.4097 -21.5249 -27.3551
-21.84 -25.7061 -27.4697 -26.541 -24.7138 -27.5506 -27.2945 -26.9343 -20.9 -27.5346
-22.1153 -22.4008 -27.7128 -27.2702 -23.8888 -27.7035 -27.703 -27.599 -26.7658 -27.384
-25.5298 -26.9093 -24.2962 -27.6645 -27.2236 -24.9047 -27.6673 -24.5003 -22.7289 -27.687
-27.1714 -25.3237 -26.5455 -26.8806 -27.1117 -20.339 -24.1401 -27.7437 -26.624 -19.0651
-25.8932 -27.7923 -27.0506 -26.2479 -27.1788 -24.6689 -26.7341 -25.0966 -27.6229 -27.4168
-23.0719 -27.7923 -25.7664 -27.7594 -24.2833 -26.5198 -26.9949 -27.377 -25.5195 -26.0348
-24.3793 -27.807 -27.3394 -26.9548 -27.4331 -24.8639 -27.7454 -25.8663 -27.2936 -25.2935
-23.4457 -27.8805 -27.8801 -27.2328 -24.0754 -27.8669 -18.4327 -26.3964 -19.7864 -24.2569
-27.8726 -26.9181 -25.6821 -27.1737 -26.7187 -26.5974 -25.985 -26.4321 -18.4674 -27.849
-24.6359 -25.063 -27.1069 -27.5948 -27.5268 -27.9413 -25.8973 -27.6961 -25.4904 -27.6702
-21.78 -26.5777 -27.501 -26.9034 -27.0421 -21.9931 -27.8154 -27.9497 -23.814 -27.7489
-27.4582 -26.5093 -27.2208 -26.8623 -24.819 -27.4136 -27.954 -24.4165 -25.2718 -27.8228
-27.0037 -27.9992 -27.3558 -27.8563 -27.8946 -22.3225 -27.4991 -25.6748 -27.2923 -22.6512
-26.2528 -26.6991 -27.9395 -27.2248 -27.9197 -25.0534 -18.563 -26.5696 -28.0276 -28.0281
-27.6548 -26.0719 -25.4735 -26.8319 -19.2329 -24.2081 -28.0581 -27.1645 -27.6443 -23.0312
-28.0312 -28.0451 -27.9734 -27.7738 -25.8698 -27.1096 -27.5661 -28.0337 -24.8632 -27.5343
-25.2571 -27.9638 -27.4797 -28.0391 -27.6368 -27.9174 -25.6498 -28.1177 -27.4237 -27.9894
-28.1161 -23.3918 -28.129 -26.9217 -26.6608 -27.3486 -27.2614 -28.0601 -27.017 -26.7988
-27.7214 -25.0746 -28.1289 -24.5898 -26.2729 -27.2714 -26.6204 -25.4439 -28.026 -27.5595
-27.8261 -26.1304 -26.5461 -27.7135 -27.2197 -27.7766 -28.1814 -26.7234 -26.4207 -27.8672
-27.7247 -21.3275 -23.7637 -28.2278 -28.1372 -25.2184 -27.6768 -27.6653 -26.9717 -27.998
-21.9294 -28.2186 -27.9965 -25.8416 -27.5978 -20.694 -27.8443 -26.2632 -28.2162 -28.07
-27.547 -22.2247 -27.4754 -26.7649 -28.0825 -25.6893 -28.1288 -18.6877 -17.9723 -26.4039
-26.4182 -17.9887 -27.9851 -26.0511 -26.6148 -28.2489 -25.0154 -27.4104 -27.8833 -28.204
-26.3446 -26.708 -20.0728 -27.3428 -28.3352 -24.1469 -28.2198 -27.9804 -26.9326 -27.7318
-28.1057 -25.8423 -22.6401 -26.2423 -26.9792 -28.2419 -26.6872 -26.8295 -27.3106 -23.0173
-28.3144 -26.7413 -28.2752 -26.5028 -18.0541 -27.6297 -28.0789 -25.6412 -28.2309 -27.8015
-27.221 -28.1606 -25.9495 -28.3202 -27.7016 -27.7955 -28.116 -28.1871 -27.5788 -26.7466
-27.9269 -28.2271 -25.8297 -23.3575 -28.394 -26.6348 -28.2519 -27.5232 -26.8883 -28.3388
-25.3899 -24.5421 -28.4399 -27.1457 -19.474 -26.5708 -28.2828 -27.4676 -26.7179 -28.077
-26.4237 -26.8104 -26.7934 -28.3975 -28.2197 -26.2386 -28.4351 -26.7514 -23.702 -28.5189
-26.8568 -28.0894 -26.9674 -28.4394 -27.9564 -27.8747 -27.075 -28.1715 -27.8442 -27.9742
-28.318 -26.014 -28.2351 -27.7249 -26.6673 -18.1607 -26.8604 -28.3107 -27.3553 -28.5585
-24.949 -27.699 -28.3612 -26.9351 -22.2887 -28.1748 -27.5971 -27.8797 -25.8134 -28.4639
-26.8271 -27.0464 -28.0121 -28.2806 -24.0835 -28.639 -26.7328 -27.0364 -22.6365 -26.5267
-18.8839 -28.1566 -27.4654 -28.4616 -26.9225 -28.5454 -26.8728 -27.0218 -28.0756 -26.6641
-28.2996 -27.3652 -28.2723 -28.1505 -28.1929 -28.0048 -26.7889 -27.9311 -28.5662 -28.1644
-26.6915 -22.9835 -27.8939 -28.3423 -28.6753 -25.3655 -26.5956 -28.4205 -28.3861 -17.5119
-26.4115 -27.1183 -26.9915 -24.4824 -28.7606 -28.3489 -23.3252 -28.6669 -27.2698 -26.4386
-17.5471 -28.5732 -26.2395 -26.7566 -28.4128 -26.8612 -26.6632 -27.0841 -27.4278 -26.9652
-27.7678 -26.4976 -28.1114 -23.6679 -28.8006 -27.0651 -28.2451 -27.2076 -26.8206 -26.7139
-26.9308 -18.3139 -28.1081 -28.1781 -21.1334 -28.021 -28.4072 -28.2593 -24.9101 -28.8847
-28.4512 -28.393 -28.3251 -27.963 -28.8091 -25.7867 -27.0882 -20.4735 -21.8105 -27.1798
-27.883 -27.043 -26.545 -17.6386 -28.5806 -28.5197 -26.7766 -27.7426 -26.6763 -26.8995
-24.0026 -28.9415 -27.1418 -27.005 -28.6769 -26.6791 -28.7107 -27.312 -27.6181 -19.8057
-22.5578 -27.1111 -26.7313 -26.8477 -27.2713 -26.6284 -29.0131 -25.3377 -22.9306 -26.9711
-27.5047 -28.8443 -28.1838 -28.2763 -28.3661 -27.8293 -28.085 -28.445 -24.4409 -29.0714
-26.231 -28.9331 -28.182 -28.0229 -27.0762 -28.4806 -27.2333 -26.7978 -27.5082 -26.6838
-28.506 -26.9224 -27.415 -19.1519 -26.5048 -28.9688 -27.1912 -23.313 -27.0408 -27.3795
-28.7899 -26.745 -17.7532 -27.1233 -26.873 -27.1494 -26.6347 -23.648 -29.0904 -29.1492
-25.7701 -27.331 -26.9903 -24.8711 -29.2058 -26.5531 -28.3774 -17.0214 -26.3824 -28.4839
-28.2702 -26.3925 -17.0375 -28.5468 -28.1852 -27.5349 -27.29 -26.8141 -28.6688 -26.6931
-28.0144 -26.688 -29.0604 -26.946 -26.6069 -28.8055 -24.0187 -29.2297 -27.8867 -27.2412
-18.536 -27.0506 -27.916 -28.2692 -26.4513 -17.1021 -28.9563 -27.4324 -27.7597 -26.7581
-28.6061 -26.8876 -26.6501 -27.5003 -25.3281 -29.3442 -27.0033 -27.3823 -29.2894 -26.2092
-28.9057 -27.6478 -29.1036 -22.9589 -27.5684 -24.4073 -29.3778 -26.4988 -27.1437 -28.5462
-28.4845 -26.7077 -26.8279 -27.3373 -28.387 -28.2813 -28.229 -26.612 -26.9619 -27.5807
-27.5575 -23.3216 -29.1859 -27.1504 -29.2565 -27.5131 -26.7718 -26.6602 -29.486 -25.7482
-17.2024 -26.5688 -27.0394 -17.9306 -24.8943 -29.5219 -27.442 -28.3456 -26.6985 -29.4324
-29.3927 -23.617 -26.7193 -28.7092 -27.577 -26.832 -26.6175 -20.9195 -28.507 -28.5897
-28.3928 -27.6537 -28.0098 -28.7535 -29.0262 -28.3082 -26.4442 -28.208 -20.211 -26.4973
-28.8903 -21.6475 -27.1332 -27.3409 -28.0301 -29.0263 -29.5251 -26.7819 -26.6736 -26.9202
-29.3092 -26.5714 -27.5549 -27.6151 -25.3548 -29.6711 -29.1861 -29.6431 -26.2271 -27.9029
-19.5235 -22.3987 -26.4929 -26.7106 -26.7419 -24.5245 -29.6738 -16.5309 -26.3532 -26.6263
-27.781 -29.3572 -27.2448 -26.0447 -27.0976 -27.1734 -29.5777 -26.5432 -27.0303 -26.3706
-16.5658 -26.4607 -28.5621 -28.4746 -28.3885 -28.4288 -26.9005 -27.6655 -18.8428 -17.3398
-26.8116 -29.5178 -23.2328 -28.7969 -26.4081 -27.174 -26.5849 -25.7973 -29.8316 -29.1343
-26.2423 -27.3462 -24.9438 -29.833 -29.8022 -26.7069 -26.6936 -27.1204 -29.4347 -27.5555
-26.6447 -28.0635 -28.0635 -26.4402 -16.6568 -29.6825 -27.0928 -26.0294 -26.5459 -26.7382
-26.4836 -28.7946 -28.5793 -26.9236 -29.7158 -27.6379 -28.9533 -28.3788 -26.726 -27.3191
-27.2365 -27.1665 -29.1088 -18.1774 -27.4598 -26.5961 -24.0301 -26.2756 -29.9956 -28.2045
-27.0045 -25.3791 -29.9991 -29.8318 -26.5043 -29.2605 -26.7327 -26.6814 -28.042 -29.4144
-27.3909 -26.7842 -27.1723 -29.9604 -26.0978 -26.5536 -28.8812 -26.7182 -29.2409 -26.4987
-27.3427 -29.5907 -27.915 -29.9756 -27.1052 -29.5617 -27.5697 -26.9119 -26.3949 -28.5141
-27.3144 -26.8727 -26.6143 -16.7608 -25.823 -30.1732 -26.3333 -27.7921 -26.5062 -29.7749
-29.8507 -30.1685 -26.726 -28.1055 -24.9338 -30.1416 -27.3875 -26.4288 -17.5394 -27.2268
-27.4603 -27.544 -26.6899 -27.0601 -26.5662 -26.9843 -26.4842 -27.6863 -16.0158 -26.2908
-16.0321 -26.2973 -29.9503 -27.6555 -30.1193 -26.4792 -27.1346 -26.7591 -27.6209 -28.9647
-20.6772 -26.2908 -30.3521 -28.7736 -27.3335 -26.5237 -29.1515 -28.5648 -16.0969 -26.337
-27.572 -25.3948 -30.319 -19.9263 -27.0694 -29.3378 -21.4583 -29.6762 -29.3206 -30.1277
-30.3425 -28.3685 -27.1853 -28.9701 -27.5442 -29.4872 -27.0432 -29.9828 -26.5748 -28.2018
-19.2109 -28.571 -26.3718 -26.483 -29.657 -22.2618 -27.2917 -27.4578 -27.1896 -27.1025
-27.6172 -28.0443 -27.6794 -26.6465 -30.294 -29.8264 -30.2682 -28.1405 -26.9498 -16.9144
-26.5392 -25.826 -30.508 -30.5346 -26.7083 -27.3669 -16.1917 -26.4397 -18.5179 -27.9217
-30.0187 -23.0898 -27.3052 -27.5705 -27.6825 -30.5127 -30.4558 -27.047 -26.4962 -27.2673
-29.7874 -27.8091 -29.4373 -30.216 -30.1162 -26.3109 -26.8194 -29.0385 -26.5617 -26.2559
-30.7041 -27.4326 -27.346 -26.4453 -27.5326 -25.4469 -30.6429 -30.7198 -27.2072 -27.1616
-29.139 -28.9339 -30.4134 -17.8185 -27.695 -29.3385 -28.6206 -28.7401 -30.4067 -23.9897
-26.6219 -26.3524 -29.5303 -28.5393 -26.5174 -29.7135 -27.6105 -15.5008 -26.2285 -26.4131
-28.3516 -30.6832 -28.179 -27.2701 -27.5537 -16.3109 -26.7079 -29.8943 -26.2394 -15.5371
-26.7398 -30.9003 -30.5998 -27.0172 -28.1932 -27.8212 -27.514 -26.4671 -30.8409 -25.8305
-30.0823 -26.2662 -29.8983 -26.594 -27.7594 -30.2449 -30.9058 -27.7108 -29.519 -28.041
-26.5301 -30.2681 -17.1351 -27.404 -30.5574 -26.6419 -27.5964 -27.2114 -27.6958 -27.1306
-26.4182 -26.2939 -15.6279 -29.1041 -29.1041 -24.9127 -30.7861 -27.9311 -26.8895 -26.5921
-30.4734 -26.2977 -31.0498 -27.2939 -26.4873 -30.8476 -28.6734 -31.0973 -27.2258 -27.8904
-27.522 -27.2197 -26.5757 -26.3692 -26.6652 -27.8166 -30.9783 -29.3064 -20.403 -29.0841
-26.9904 -30.6832 -29.533 -27.1902 -28.8874 -19.6253 -26.6146 -28.2194 -31.0954 -26.4336
-29.7377 -21.2396 -27.7532 -28.6958 -29.9374 -30.3693 -26.7565 -30.0041 -26.927 -27.4619
-27.3482 -18.8755 -28.5121 -27.2557 -26.769 -31.2644 -27.6631 -26.238 -30.7085 -26.5067
-15.7213 -16.4832 -27.0952 -22.0969 -29.5913 -30.1374 -30.8876 -27.9115 -26.376 -31.3022
-27.74 -28.3357 -31.0033 -31.1993 -26.8754 -25.8658 -29.1618 -30.3347 -27.5437 -26.5775