# vtk DataFile Version 2.0
sampleSurface
ASCII
DATASET POLYDATA
POINTS 11763 double
-6.63336e-12 0 2.47518e-12
9.86781e-12 0 0.0046875
-0.0103164 0 0.00255604
0.0103164 -8.67362e-19 0.00255604
-0.015625 0 3.0071e-12
0.015625 0 2.7808e-12
-0.015625 0 0.0046875
0.015625 0 0.0046875
-0.0104176 0 0.0154932
0.0104176 0 0.0154932
-6.2524e-12 1.61559e-27 0.0202803
-0.0209653 0 0.00255604
0.0209653 0 0.00255604
-0.015625 0 0.0202803
0.015625 0 0.0202803
0.0208326 8.67362e-19 0.0154932
-0.0208326 0 0.0154933
-0.0104176 0 0.0258868
0.0104176 0 0.0258868
-0.03125 0 2.38968e-12
0.03125 1.61559e-27 1.99892e-12
0.03125 0 0.0046875
-0.03125 -4.28745e-19 0.0046875
0.0208326 0 0.0258868
-0.0208326 0 0.0258869
6.09475e-12 0 0.0358731
0.03125 0 0.0202803
-0.03125 -1.45781e-18 0.0202805
0.015625 -8.07794e-28 0.0358731
-0.015625 0 0.0358731
0.03125 0 0.0358731
-0.03125 8.07794e-28 0.0358734
-0.0478046 0 0.00327394
0.0478046 -1.73472e-18 0.00327394
-0.0468674 -1.73472e-18 0.0220717
0.046867 0 0.0221037
0.0156232 1.73472e-18 0.0519171
-0.0156232 -8.67362e-19 0.0519172
-0.0625 3.23117e-27 4.5491e-12
0.0625 0 3.4046e-12
0.0625 -8.7765e-19 0.00736603
-0.0625 3.23117e-27 0.00736603
4.11134e-12 0 0.0670587
-0.015625 0 0.0670549
0.015625 0 0.0670549
-0.0468836 8.67362e-19 0.053318
0.0468831 0 0.0533796
0.0625 0 0.0385149
-0.0625 0 0.0385152
0.03125 0 0.0670587
-0.03125 0 0.0670593
-0.0104167 8.67362e-19 0.0774514
0.0104168 -8.67362e-19 0.0774515
-0.0784886 1.73472e-18 0.00408834
0.0784886 1.73472e-18 0.00408834
0.0208333 0 0.0774515
-0.0208333 8.67362e-19 0.0774516
-0.0781233 -1.73472e-18 0.0237617
0.0781233 0 0.0237617
2.61865e-13 -2.01948e-28 0.0826515
0.046875 2.42338e-28 0.0696576
-0.046875 0 0.0696584
-0.015625 0 0.0826484
0.015625 -2.01948e-28 0.0826484
0.03125 -2.01948e-28 0.0826515
-0.03125 -2.01948e-28 0.0826523
-0.0104167 0 0.087847
0.0104167 8.67362e-19 0.0878471
0.0416623 0 0.07886
-0.0416632 0 0.0789113
0.0208333 -8.67362e-19 0.0878471
-0.0208333 0 0.0878473
0.0625 0 0.0696637
-0.0625 -1.61559e-27 0.0696644
-0.09375 0 8.31149e-12
0.09375 3.23117e-27 5.24318e-12
-0.09375 0 0.00865466
0.09375 0 0.00865466
0.0520798 0 0.0797251
-0.0520807 -8.67362e-19 0.0797764
-0.0781298 -8.67362e-19 0.0549157
0.0781281 -8.67362e-19 0.054971
0.046875 0 0.0852333
-0.046875 4.03897e-28 0.0852343
1.89257e-12 -2.01948e-28 0.0982443
0.0416622 -8.67362e-19 0.0892496
-0.0416632 0 0.0893011
0.015625 0 0.0982418
-0.015625 0 0.0982418
0.09375 -1.61559e-27 0.0397859
-0.09375 0 0.0397861
0.03125 0 0.0982443
-0.03125 0 0.0982452
0.0520798 8.67362e-19 0.0901087
-0.0520808 0 0.0901601
0.078125 0 0.0709099
0.0625 0 0.0852382
-0.0625 0 0.0852389
-0.00781252 -8.67362e-19 0.106039
-0.0234375 0 0.106039
0.0729152 8.67362e-19 0.0807205
-0.109509 -1.73472e-18 0.00448098
0.109509 0 0.00448098
0.046875 -2.42338e-28 0.100809
-0.046875 0 0.10081
0.109375 -8.67362e-19 0.0245096
-0.109374 0 0.0245234
-1.45339e-12 -2.01948e-28 0.113837
-0.039061 -8.67362e-19 0.107318
-0.015625 0 0.113835
0.0156414 3.46945e-18 0.11424
-0.0781224 0 0.08613
0.0833322 0 0.0811369
0.078125 -4.03897e-28 0.0864769
0.0729152 -8.67362e-19 0.0911012
0.09375 0 0.0709171
-0.09375 1.61559e-27 0.0709174
-0.03125 0 0.113838
0.0625 4.03897e-28 0.100813
-0.0625 0 0.100814
-0.0546874 -8.67362e-19 0.108597
-0.00781252 0 0.121632
0.109377 -1.73472e-18 0.0556441
-0.109374 -3.46945e-18 0.0556628
0.0833322 8.67362e-19 0.0915146
-0.0234374 8.67362e-19 0.121632
0.0468479 0 0.115627
-0.125 0 0
0.125 3.23117e-27 6.83104e-12
-0.125 7.77562e-19 0.00916888
0.125 0 0.00916888
-0.046875 2.01948e-28 0.116385
0.09375 -2.42338e-28 0.0864827
0.078125 2.01948e-28 0.102043
-0.078125 4.03897e-28 0.102044
-0.0390611 8.67362e-19 0.122902
2.06739e-12 0 0.12943
-0.0703118 0 0.109212
-0.015625 2.01948e-28 0.129428
0.125 3.23117e-27 0.0402929
-0.125 6.46235e-27 0.0402931
0.0625 2.42338e-28 0.116387
-0.0625 -4.03897e-28 0.116388
0.03125 0 0.12943
-0.03125 5.79927e-19 0.12943
0.0729152 -8.67362e-19 0.111861
-0.0546875 0 0.124172
0.09375 4.03897e-28 0.102048
-0.09375 0 0.102049
-0.0859374 -8.67362e-19 0.109827
-0.109377 -8.67362e-19 0.086797
0.109374 8.67362e-19 0.0868157
0.0833322 -8.67362e-19 0.112272
-0.046875 0 0.13196
-0.0104318 -8.67362e-19 0.140139
-0.140665 1.73472e-18 0.00463112
0.140665 1.73472e-18 0.00463112
0.078125 -2.01948e-28 0.11761
-0.078125 -4.03897e-28 0.117611
-0.0208473 0 0.140139
0.0729152 8.67362e-19 0.122242
0.140625 0 0.0248235
-0.140625 8.67362e-19 0.0248235
-0.0703118 8.67362e-19 0.124783
0.125 -1.61559e-27 0.071417
-0.125 0 0.0714174
-1.56732e-12 2.01948e-28 0.145023
-0.015625 -2.01948e-28 0.145021
0.0625 0 0.131961
-0.0625 0 0.131963
0.0156067 8.67362e-19 0.14557
-0.0416334 8.67362e-19 0.141404
0.0833323 0 0.122649
-0.03125 8.68452e-19 0.145023
0.109375 2.42338e-28 0.102536
0.09375 3.02923e-28 0.117614
-0.09375 0 0.117615
-0.0104318 8.67362e-19 0.150533
-0.140625 0 0.055945
0.140625 -1.73472e-18 0.05595
-0.0520507 -8.67362e-19 0.142245
-0.0208473 8.67362e-19 0.150533
-0.0859375 0 0.125394
0.104168 8.67362e-19 0.11268
0.0468783 8.67362e-19 0.146677
0.078125 0 0.133176
-0.078125 -4.03897e-28 0.133177
-0.046875 -2.01948e-28 0.147535
-0.15625 0 1.96872e-11
0.15625 -3.23117e-27 8.55705e-12
-0.15625 0 0.00932914
0.15625 -3.23117e-27 0.00932914
-0.0416334 0 0.151793
-0.0625 0 0.147538
-0.0729162 8.67362e-19 0.143069
1.66834e-12 0 0.160616
0.114581 -8.67362e-19 0.112843
-0.109374 0 0.117919
0.109375 -2.01948e-28 0.118099
0.104168 0 0.123053
-0.0520507 8.67362e-19 0.152628
-0.015625 0 0.160614
0.015625 0 0.160614
0.15625 -3.23117e-27 0.040451
-0.15625 -6.46235e-27 0.0404513
0.125 0 0.102541
-0.125 0 0.102542
0.09375 4.03897e-28 0.13318
-0.09375 0 0.13318
0.03125 0 0.160616
-0.03125 -5.87648e-19 0.160616
0.140625 1.73472e-18 0.0870624
-0.140625 1.73472e-18 0.0870637
-0.0833324 -8.67362e-19 0.143473
0.0781175 -1.73472e-18 0.148353
-0.078125 0 0.148744
0.114581 -8.67362e-19 0.123215
-0.046875 2.01948e-28 0.16311
-0.0729163 0 0.153448
0.0104166 0 0.171396
-0.0104186 -8.67362e-19 0.171442
0.15625 0 0.0715728
-0.15625 0 0.0715734
-0.171884 -1.73472e-18 0.00467554
0.171884 1.73472e-18 0.00467554
0.125 2.01948e-28 0.118103
0.0208335 0 0.171396
-0.0208333 -8.67362e-19 0.171442
0.109375 1.21169e-28 0.133662
-0.171875 -8.67362e-19 0.024912
0.171875 1.73472e-18 0.0249119
0.140625 0 0.102536
-0.0390595 -4.33681e-19 0.169946
0.0625 4.03897e-28 0.16311
-0.0625 4.03897e-28 0.163113
-0.0833323 8.67362e-19 0.15385
-0.09375 0 0.148747
1.63183e-12 -2.01948e-28 0.176208
0.135417 0 0.112938
0.015625 0 0.176207
-0.015625 -2.01948e-28 0.176207
-0.03125 0 0.176208
0.03125 0 0.176208
-0.0546874 0 0.170888
0.171875 -8.67362e-19 0.0560323
-0.171875 0 0.0560338
-0.078125 0 0.16431
0.0104166 -8.67362e-19 0.181791
-0.0104186 0 0.181835
0.0208335 0 0.181791
-0.125 8.07794e-28 0.133666
0.125 0 0.133666
-0.0208333 0 0.181835
0.135417 0 0.123313
0.140625 0 0.118099
-0.140625 0 0.118174
0.0468678 -1.73472e-18 0.177876
0.145833 8.67362e-19 0.112989
-0.046875 2.01948e-28 0.178685
0.109372 -1.73472e-18 0.149045
-0.109372 -1.73472e-18 0.149051
0.15625 8.07794e-28 0.102695
-0.15625 0 0.102696
-0.1875 0 3.04874e-11
0.1875 -6.46235e-27 0
-0.1875 -1.38998e-18 0.00936721
0.1875 4.03615e-19 0.00936721
0.09375 -8.07794e-28 0.164311
-0.09375 0 0.164313
-0.0625 0 0.178687
-0.0390595 0 0.185528
0.145833 8.67362e-19 0.123364
-1.2018e-12 2.01948e-28 0.191801
0.1875 3.23117e-27 0.0404886
-0.1875 0 0.0404888
-0.015625 2.01948e-28 0.1918
0.015625 -2.01948e-28 0.1918
0.171875 -1.73472e-18 0.0871523
-0.171875 -1.73472e-18 0.0871562
0.140625 -1.00974e-28 0.133661
-0.140625 0 0.133662
-0.0546875 8.67362e-19 0.186463
-0.03125 0 0.191801
0.03125 0 0.191801
0.125 -8.07794e-29 0.149228
-0.125 2.52916e-19 0.149229
0.0781237 0 0.179411
-0.0781224 -1.73472e-18 0.179517
0.15625 4.03897e-28 0.118256
0.135417 8.67362e-19 0.144063
-0.135417 -8.67362e-19 0.144066
-0.046875 4.03897e-28 0.19426
0.1875 -4.44274e-19 0.0716099
-0.1875 -1.24911e-18 0.0716103
0.0104182 0 0.202676
-0.203127 0 0.00468556
0.203127 -3.46945e-18 0.00468556
0.0208344 0 0.202676
0.0625 -4.03897e-28 0.194259
-0.0625 -4.03897e-28 0.194261
-0.203125 -1.73472e-18 0.0249319
0.203125 -1.73472e-18 0.0249319
0.145833 -8.67362e-19 0.144113
-0.145833 -8.67362e-19 0.144116
0.140625 -2.01948e-28 0.149224
-0.140625 1.61559e-27 0.149225
0.135417 0 0.154438
-0.135417 0 0.154441
0.15625 0 0.133817
-0.15625 0 0.133818
0.125 0 0.16479
-0.125 0 0.164791
1.74858e-12 2.01948e-28 0.207394
-0.0416842 8.67362e-19 0.203749
0.015625 -2.01948e-28 0.207393
-0.0155898 1.73472e-18 0.208024
0.171875 8.67362e-19 0.118275
-0.171875 0 0.118278
-0.03125 3.16494e-19 0.207394
0.03125 0 0.207394
-0.203125 -8.67362e-19 0.0560534
0.203125 0 0.0560534
0.109375 8.67362e-19 0.180153
-0.109374 8.67362e-19 0.180183
-0.052104 8.67362e-19 0.204566
0.145833 0 0.154488
-0.145833 0 0.154491
0.0104182 0 0.213071
0.1875 0 0.102731
-0.1875 0 0.102732
0.0208344 1.73472e-18 0.213071
0.0468516 3.46945e-18 0.209097
-0.046875 -4.03897e-28 0.209834
0.15625 1.00974e-28 0.149377
-0.15625 0 0.149379
0.140625 0 0.164787
-0.140625 -1.61559e-27 0.164788
0.09375 -4.03897e-28 0.195442
-0.09375 -8.07794e-28 0.195443
0.171875 0 0.133849
-0.0416842 -8.67362e-19 0.21414
-0.21875 0 5.17528e-11
0.21875 0 1.34296e-11
-0.0625 0 0.209836
-0.21875 1.42589e-18 0.00937401
0.21875 -1.06512e-18 0.00937402
-0.125 1.36882e-18 0.180352
0.166667 0 0.144206
0.203125 -1.73472e-18 0.0871747
-0.203125 0 0.0871748
-0.052104 0 0.214951
-0.135417 -8.67362e-19 0.175191
0.21875 0 0.0404953
-0.21875 2.58494e-26 0.0404954
-1.27391e-12 0 0.222987
0.015625 0 0.222986
0.0781235 0 0.210558
-0.0781163 1.73472e-18 0.210603
-0.03125 -4.03897e-28 0.222987
0.03125 2.01948e-28 0.222987
-0.15625 -1.61559e-27 0.16494
0.15625 0 0.16494
0.166667 0 0.154581
-0.171875 -8.67362e-19 0.149402
0.171875 0 0.14941
-0.145833 0 0.17524
0.177083 0 0.144218
-0.140625 0 0.18035
0.140624 -8.67362e-19 0.180427
-0.135417 0 0.185565
0.21875 3.23117e-27 0.0716167
-0.21875 0 0.0716169
-0.046875 -4.03897e-28 0.225409
0.1875 0 0.133853
[...]
POINT_DATA 11763
FIELD attributes 1
U 3 11763 float
20 -1.4635e-11 -1.55417e-13
21.5102 -0.0143796 -0.00769492
21.4483 -0.0144948 -2.44847e-05
21.4537 -0.0151035 -0.000352218
20 -1.76908e-11 -9.4069e-14
20 -1.6613e-11 -6.03414e-13
21.5054 -0.0153421 -0.00797667
21.5137 -0.0164472 -0.00762065
21.5783 -0.0135144 -0.0171997
21.5846 -0.0146607 -0.0162444
21.5819 -0.0163304 -0.0168003
21.4458 -0.0138818 -7.38035e-05
21.4558 -0.0158758 -0.000918844
21.5779 -0.0162936 -0.0179433
21.5859 -0.0176313 -0.0160372
21.5867 -0.0149382 -0.0165242
21.5755 -0.0128215 -0.0184743
21.5793 -0.0149602 -0.018271
21.5848 -0.016399 -0.0160659
20 -1.59925e-11 -1.3263e-13
20 -1.51711e-11 -1.4571e-12
21.5232 -0.0162926 -0.00865527
21.5027 -0.0114591 -0.00869495
21.5864 -0.0169403 -0.0164119
21.5775 -0.0135941 -0.0181372
21.5938 -0.0147534 -0.0217809
21.5903 -0.0172345 -0.0165649
21.5748 -0.012821 -0.0188604
21.5955 -0.0171166 -0.0198897
21.5875 -0.0145338 -0.0217116
21.6044 -0.0167757 -0.0215368
21.5866 -0.0108633 -0.0237004
21.4413 -0.00883508 -0.000124249
21.4847 -0.0182179 -0.00359905
21.571 -0.00862394 -0.0200613
21.5977 -0.0173431 -0.0170955
21.6166 -0.0153035 -0.0282102
21.6069 -0.0115541 -0.029395
20 -2.2255e-11 -4.53376e-13
20 -2.07832e-11 -3.49111e-12
21.5436 -0.0196655 -0.009717
21.4997 -0.00648199 -0.0101774
21.6203 -0.00875591 -0.0400366
21.6161 -0.00647024 -0.0424814
21.6251 -0.00755512 -0.0390968
21.5967 -0.00840495 -0.0304941
21.6274 -0.0174987 -0.0274885
21.6181 -0.0191016 -0.0218744
21.5809 -0.00625325 -0.0266422
21.6293 -0.00956311 -0.037449
21.6107 -0.00701721 -0.0428337
21.6229 -0.00502238 -0.0487054
21.6292 -0.00626111 -0.0465104
21.4421 -0.00472699 -0.000729007
21.5039 -0.0216311 -0.00419879
21.6314 -0.00498029 -0.0442968
21.6199 -0.00592931 -0.0510237
21.5687 -0.00350487 -0.0239367
21.6093 -0.021539 -0.0164066
21.6266 -0.00276752 -0.049333
21.6341 -0.00698241 -0.0378412
21.6076 -0.00469494 -0.0466064
21.6218 -0.00206028 -0.0509167
21.6301 -0.00103822 -0.0470986
21.6347 -0.00114015 -0.0467239
21.6178 -0.00286271 -0.0529139
21.6257 -0.00280596 -0.054168
21.6318 -0.00384964 -0.0510091
21.6374 -0.00449845 -0.044031
21.6139 -0.00394117 -0.0526926
21.6339 -0.00130087 -0.0509752
21.6228 -0.00416919 -0.0548183
21.6384 -0.0101359 -0.0364703
21.6017 -0.00490025 -0.046404
20 -2.23407e-11 -1.411e-12
20 -2.69845e-11 -4.27825e-12
21.4952 -0.00237328 -0.0119535
21.5575 -0.0233663 -0.00930659
21.6395 -0.00395643 -0.0429113
21.6119 -0.00442539 -0.057125
21.5872 -0.00455547 -0.0320187
21.6378 -0.0199983 -0.0264948
21.6383 0.000412544 -0.0465014
21.6136 -0.00207255 -0.0550137
21.63 -0.000525291 -0.0606569
21.6401 -0.0019986 -0.0504823
21.6166 -0.00275097 -0.0568914
21.6337 0.000242274 -0.0563742
21.6255 0.000369116 -0.0636579
21.6278 -0.0219483 -0.0204381
21.5722 -0.0023314 -0.0290163
21.6391 -0.0010158 -0.0572176
21.6215 -0.00101185 -0.0645694
21.6426 -0.00144179 -0.0511304
21.6139 -0.00453217 -0.0583163
21.6418 -0.00690569 -0.0366314
21.6426 -0.000987902 -0.0463809
21.6103 -0.00309591 -0.0582699
21.6284 0.00259707 -0.0688185
21.625 0.00097529 -0.0710698
21.6448 -0.00459057 -0.0427647
21.4339 -0.000883862 -0.00114657
21.5176 -0.0253226 -0.00391451
21.6429 -0.000220075 -0.0559591
21.6175 -0.000489776 -0.0671719
21.6182 -0.0249951 -0.0147861
21.5589 -0.00017842 -0.0264254
21.6313 0.00324955 -0.0719702
21.621 0.000798237 -0.0718347
21.6279 0.00287868 -0.0734137
21.6371 0.0016997 -0.0685852
21.6059 -0.0024403 -0.0607638
21.6455 -0.00191717 -0.0413283
21.6449 0.00154863 -0.0459558
21.6481 -0.00284919 -0.0501842
21.6464 -0.0114766 -0.0349237
21.5897 -0.00153919 -0.0480678
21.6242 0.00179701 -0.0743812
21.648 -0.00263029 -0.0566832
21.6134 -0.000958307 -0.0691585
21.6171 0.000682301 -0.0751943
21.6307 0.00485179 -0.0771895
21.6458 -0.02125 -0.0240297
21.574 -0.00110276 -0.033653
21.6493 -0.000156965 -0.0503992
21.6275 0.00309066 -0.0765773
21.6476 -0.00185125 -0.0661976
20 -2.46891e-11 -2.3477e-12
20 -3.48069e-11 -4.5678e-12
21.4855 0.00129179 -0.0131038
21.567 -0.02673 -0.00819473
21.6202 0.00134616 -0.0763207
21.6495 -0.00125662 -0.0453295
21.6507 -0.000614839 -0.0561836
21.6101 0.000235929 -0.0737781
21.6233 0.00241062 -0.078396
21.6345 0.00217524 -0.0817303
21.6133 0.00083295 -0.0756743
21.6296 0.0028626 -0.0832718
21.6354 -0.0243871 -0.0183915
21.5607 0.000934309 -0.0310802
21.6515 -0.00317975 -0.0643289
21.6162 0.00113019 -0.0776156
21.6445 -0.00136498 -0.0769544
21.6258 0.00190489 -0.0848347
21.6535 -0.00427514 -0.0625024
21.6194 0.00140654 -0.0795028
21.6551 -0.00275605 -0.0551377
21.6048 0.000882807 -0.0729218
21.6093 0.00123874 -0.0797324
21.5918 0.00193888 -0.0657921
21.6567 -0.00747657 -0.044656
21.6553 -0.00206969 -0.0615951
21.6212 0.00114253 -0.0869899
21.6323 0.00161191 -0.0918618
21.4234 0.00322558 -0.00119311
21.5251 -0.0285625 -0.00312814
21.6539 -0.00185184 -0.0633418
21.6122 0.00135658 -0.0788972
21.6296 0.000795677 -0.0934705
21.6547 -0.0046963 -0.065101
21.6252 -0.0279784 -0.0127776
21.548 0.00306409 -0.0283537
21.6151 0.00161925 -0.080208
21.6544 -0.0151873 -0.0331588
21.5771 0.00179399 -0.0508964
21.635 -0.000281722 -0.0926277
21.6297 5.95996e-05 -0.09538
21.6534 -0.0042314 -0.0732475
21.6168 0.00117153 -0.0889192
21.6426 -0.00193774 -0.0890093
21.6232 0.000647418 -0.0969
21.656 -0.00179658 -0.0660113
21.6257 -0.000381431 -0.097188
21.6587 -0.00286433 -0.0545736
21.6572 -0.00136675 -0.0629027
21.6096 0.00169512 -0.0795129
21.6312 -0.000354595 -0.0955992
21.5618 0.00194934 -0.0358721
21.6524 -0.023332 -0.0219499
21.6196 0.000523324 -0.0996982
21.629 -0.000703736 -0.0963279
21.6109 0.00171481 -0.0798554
21.6597 -0.00290296 -0.06044
21.651 -0.00352373 -0.0849001
21.6564 -0.00376139 -0.070527
21.6122 0.00109235 -0.0898406
21.6206 -0.00100531 -0.100585
20 -2.74918e-11 -3.1033e-12
20 -4.48039e-11 -4.81888e-12
21.4747 0.00462939 -0.0139432
21.573 -0.0296993 -0.00708124
21.6224 -0.000672847 -0.0998581
21.6158 -0.000584554 -0.102892
21.613 0.000871945 -0.102937
21.6355 6.99012e-05 -0.100862
21.6612 -0.00103633 -0.0587568
21.6078 0.00240921 -0.0785939
21.6598 -9.85297e-05 -0.0618808
21.6609 -0.00302337 -0.0642611
21.6192 -0.000569373 -0.101901
21.6301 -0.000466758 -0.103369
21.6399 0.000651161 -0.100537
21.6416 -0.0270966 -0.0165926
21.5487 0.0040838 -0.0333101
21.6616 -0.00382051 -0.0520119
21.5924 0.0037959 -0.0742585
21.6608 -0.00457715 -0.0704849
21.6087 0.00217331 -0.091784
21.6459 -0.000692372 -0.09571
21.6263 -0.000259427 -0.105138
21.6625 -0.00871419 -0.0419578
21.5807 0.0043818 -0.0681921
21.6096 0.00147069 -0.105256
21.6599 -0.00666255 -0.0809185
21.611 -0.000657259 -0.105565
21.6624 -0.001214 -0.0644784
21.6219 -0.000711052 -0.10992
21.6128 0.000115553 -0.104759
21.6381 0.00135604 -0.106465
21.6322 0.000612747 -0.10867
21.6606 -0.0174367 -0.0306932
21.5643 0.00467396 -0.0535781
21.4129 0.00606336 -0.000924408
21.5297 -0.0314013 -0.00253184
21.6628 0.000386376 -0.0605896
21.6402 0.00263141 -0.10425
21.6298 0.000503617 -0.110462
21.6635 -0.00351516 -0.0683329
21.5366 0.0061619 -0.030364
21.6301 -0.0307496 -0.0115552
21.6639 -0.00209413 -0.0510955
21.6245 -8.51487e-05 -0.112431
21.6563 -0.00397373 -0.0906575
21.6179 -0.000127819 -0.111123
21.6103 0.0010404 -0.106055
21.6076 0.00147673 -0.107093
21.6359 0.000145724 -0.110668
21.6646 -0.000913009 -0.0568551
21.6395 0.00110638 -0.109311
21.632 -0.000727372 -0.112981
21.628 -0.000156566 -0.114749
21.6446 0.000709411 -0.105694
21.6211 -0.000564687 -0.117784
21.6585 -0.0263301 -0.0200791
21.5486 0.00515959 -0.0386436
21.6132 6.94608e-05 -0.111042
21.64 0.000524071 -0.110387
21.6343 -6.75894e-05 -0.11351
21.6423 0.00107575 -0.109502
21.5965 0.00473531 -0.0987653
21.6679 -0.00494125 -0.0679008
21.6324 0.00019763 -0.114555
21.6664 -0.00105912 -0.0621756
21.6651 0.00186821 -0.0589514
21.5893 0.00645513 -0.0844347
21.6524 -0.00148791 -0.101132
21.6666 -0.000172513 -0.0547062
21.6248 -0.000273215 -0.117665
21.6687 -0.00906304 -0.0760852
21.6038 0.00390515 -0.108787
21.6678 -0.00568372 -0.0482581
21.5785 0.00666703 -0.0778996
20 -3.41145e-11 -4.0076e-12
20 -5.95771e-11 -5.38499e-12
21.4622 0.00797947 -0.0146864
21.578 -0.0331004 -0.00638212
21.665 -0.00655663 -0.0856863
21.6086 0.00264113 -0.115581
21.6218 -0.000119062 -0.119833
21.6281 -3.13122e-05 -0.119311
21.6681 -0.000202454 -0.0616362
21.6423 -0.000455401 -0.120382
21.6465 -0.0299725 -0.0152523
21.5361 0.00736171 -0.0354116
21.6372 -0.000636797 -0.12112
21.646 -0.000503122 -0.119181
21.6692 -0.0113854 -0.0387669
21.5663 0.0072027 -0.07157
21.6709 -0.00410346 -0.0662597
21.5878 0.00537845 -0.106977
21.6253 -0.000414706 -0.120855
21.6334 0.000111614 -0.125016
21.6517 -0.000507143 -0.114608
21.673 -0.00934342 -0.0732453
21.5939 0.00420642 -0.11469
21.6618 -0.0042182 -0.0956137
21.6172 0.00109431 -0.121511
21.6688 -0.000697773 -0.0569432
21.6742 -0.00980035 -0.0715679
21.5888 0.0056907 -0.115028
21.6291 -0.000419 -0.12852
21.666 -0.0201229 -0.0283136
21.5507 0.00788265 -0.0563311
21.6507 -0.00168264 -0.128288
21.3993 0.00986822 -0.000769553
21.5344 -0.0357204 -0.00219416
21.6528 -0.000337011 -0.124995
21.6628 -0.00280486 -0.108141
21.6255 0.000438697 -0.131895
21.5222 0.00983083 -0.0321242
21.6359 -0.0343511 -0.0108256
21.6761 -0.0089614 -0.0703933
21.5868 0.00599258 -0.118413
21.6761 -0.00863342 -0.0712409
21.588 0.00423527 -0.1192
21.6754 -0.00953675 -0.0735549
21.5908 0.00508612 -0.118157
21.6743 -0.00621646 -0.064403
21.584 0.00726004 -0.104157
21.6732 -0.00871765 -0.0799329
21.5953 0.00584104 -0.123579
21.6497 -0.00204354 -0.132191
21.6338 0.000711757 -0.138257
21.6526 -0.00249128 -0.130181
21.6456 -0.000669877 -0.134414
21.6736 -0.00525533 -0.054349
21.5777 0.00862658 -0.0873835
21.6388 -0.000436732 -0.139239
21.6572 -0.00178269 -0.125948
21.537 0.00829439 -0.0405126
21.6616 -0.0284603 -0.0185466
21.6697 -0.00629169 -0.0900623
21.6021 0.00536014 -0.130787
21.6318 -0.000247059 -0.142749
21.6769 -0.0080019 -0.0737462
21.5894 0.00634041 -0.118848
21.6534 -0.0023482 -0.131815
21.6743 -0.00974243 -0.0449048
21.5638 0.00961671 -0.0811316
21.6555 -0.00181384 -0.129945
21.6639 -0.00215474 -0.121168
21.6346 -0.00131167 -0.144125
21.6784 -0.00864312 -0.0701484
21.5852 0.00631543 -0.119601
21.6769 -0.00880464 -0.076351
21.5884 0.00637662 -0.127628
21.6712 -0.00457354 -0.102018
21.6141 0.00372291 -0.139438
21.6781 -0.00770285 -0.0622325
21.6371 0.000444138 -0.143949
20 -5.37819e-11 -6.49233e-12
20 -8.23302e-11 -6.61608e-12
21.6305 -1.18815e-05 -0.14645
21.4488 0.0112995 -0.0156066
21.5818 -0.0367857 -0.00619099
21.5941 0.00635345 -0.135566
21.6791 -0.0100988 -0.0678678
21.675 -0.0143199 -0.0358568
21.551 0.0108734 -0.0745898
21.6349 -0.000139439 -0.14614
21.5896 0.00820221 -0.13401
21.6507 -0.0330481 -0.0145693
21.522 0.0106512 -0.0372253
21.6547 -0.000783078 -0.14236
21.6583 -0.000755402 -0.140425
21.6728 -0.00330359 -0.114626
21.6247 0.00253119 -0.148496
21.6446 0.000793287 -0.14878
21.6624 -0.000102055 -0.135027
21.5835 0.00808403 -0.129632
21.6794 -0.00934434 -0.0756411
21.6806 -0.00949656 -0.0706479
21.5807 0.00860704 -0.119186
21.6808 -0.00806836 -0.0676887
21.5864 0.00898093 -0.135986
21.6813 -0.00892356 -0.0653952
21.5885 0.00696693 -0.138877
21.6776 -0.00958095 -0.0831623
21.5922 0.00686954 -0.139743
21.6708 -0.022878 -0.0260301
21.5367 0.0110549 -0.0580224
21.6394 0.000339288 -0.154857
21.6799 -0.00866735 -0.0593774
21.5702 0.0101739 -0.10616
21.6594 -7.49119e-05 -0.148843
21.601 0.00664957 -0.146758
21.6786 -0.00643818 -0.0956423
21.6625 0.00135957 -0.143313
21.6718 -0.000574651 -0.127674
21.6348 0.00179227 -0.156903
21.3877 0.0125292 -0.000751163
21.5367 -0.038422 -0.00231647
21.5602 0.0117637 -0.0909795
21.6796 -0.00801121 -0.0506418
21.6815 -0.00822328 -0.0696404
21.5079 0.0130095 -0.0346142
21.6383 -0.0385375 -0.0109739
21.5902 0.00789103 -0.13955
21.6805 -0.0044693 -0.107695
21.6126 0.00590889 -0.156901
21.5764 0.00826966 -0.136053
21.6819 -0.00903133 -0.0727296
21.6435 0.00262396 -0.160711
21.6599 0.000199685 -0.150968
21.5829 0.00753332 -0.141552
21.6818 -0.00953378 -0.0792678
21.6621 0.00137016 -0.148116
21.6825 -0.00923103 -0.0660395
21.6569 0.000207725 -0.153979
21.6489 0.00138378 -0.16047
21.6653 0.00239405 -0.145018
21.5208 0.0114702 -0.0416498
21.6668 -0.0308439 -0.0179308
21.5942 0.00718633 -0.148006
21.6414 0.00167079 -0.164851
21.6799 -0.012957 -0.0411827
21.5491 0.0124511 -0.0835581
21.6819 -0.0103719 -0.0775019
21.5765 0.00857294 -0.140993
21.6715 0.00191709 -0.141191
21.6795 -0.00150041 -0.120591
21.6238 0.00506399 -0.163628
21.644 0.000984905 -0.16598
21.6622 0.00046917 -0.151301
21.6643 0.00377976 -0.149223
21.6462 0.00257029 -0.1656
21.6402 0.00190971 -0.168125
21.6834 -0.00999116 -0.0763172
21.5737 0.0100202 -0.145085
21.5763 0.00755237 -0.146445
21.6844 -0.00906008 -0.0763075
21.6854 -0.00921134 -0.0797171
21.5807 0.00846803 -0.145618
21.5713 0.0104305 -0.135667
21.6836 -0.0100741 -0.0715313
20 -8.74141e-11 -1.16086e-11
20 -1.03137e-10 -7.10862e-12
21.538 0.0135816 -0.0753358
21.6798 -0.0178884 -0.0317855
21.4384 0.0135966 -0.016756
21.5896 -0.0408532 -0.00679652
21.5886 0.00897624 -0.153516
21.6855 -0.00842975 -0.0883641
21.6439 0.00165135 -0.167848
21.6842 -0.0123501 -0.0641111
21.562 0.0116982 -0.127086
21.5106 0.012846 -0.0381899
21.6539 -0.0355705 -0.0143291
21.6017 0.00834868 -0.163047
21.6863 -0.00540924 -0.101604
21.635 0.0041556 -0.169833
21.6788 0.00127296 -0.133778
21.6569 0.0044657 -0.161166
21.6524 0.00450892 -0.1687
21.6607 0.00572164 -0.156672
21.6488 0.00332376 -0.171266
21.6638 0.00751609 -0.154456
21.6845 -0.0116274 -0.0550901
21.5544 0.0127304 -0.110926
21.6861 -0.00864667 -0.0793629
21.577 0.0105177 -0.146793
21.6122 0.00801714 -0.171314
21.686 -0.00225702 -0.113879
21.5239 0.0137147 -0.0604402
21.6741 -0.0250251 -0.0245819
21.5725 0.00998238 -0.147074
21.6857 -0.00890621 -0.0754014
21.5815 0.00915947 -0.159485
21.6882 -0.00871662 -0.0832331
21.6663 0.00982436 -0.154009
21.6445 0.00240967 -0.177775
21.6853 -0.00984744 -0.0691416
21.5473 0.0135855 -0.0933267
21.6854 -0.0116089 -0.0464462
21.6525 0.00676028 -0.1707
21.6558 0.00859853 -0.165667
21.5918 0.00884068 -0.169553
21.6493 0.00510601 -0.176083
21.6602 0.0104033 -0.161132
21.671 0.00920461 -0.148168
21.6402 0.00263691 -0.180387
21.6854 -0.0104905 -0.0735813
21.5859 0.0109864 -0.168997
21.686 0.000486481 -0.126216
21.6228 0.00765239 -0.179232
21.6461 0.00388735 -0.180298
21.6627 0.0117505 -0.160578
21.6747 0.0104315 -0.146385
21.6551 0.00787257 -0.171844
21.6417 0.00221877 -0.187948
21.6669 0.0126095 -0.15491
21.6519 0.00614223 -0.176557
21.6586 0.0096003 -0.167322
21.5359 0.0146113 -0.0848249
21.6847 -0.0157231 -0.0376703
21.5768 0.0115997 -0.160626
21.6904 -0.00942294 -0.0833101
21.6881 -0.00886799 -0.0764127
21.6488 0.0046176 -0.181083
21.662 0.0109105 -0.164884
21.687 -0.00699963 -0.0730769
21.5678 0.0116005 -0.1466
21.5829 0.0116048 -0.172482
21.6869 -0.00856523 -0.0716332
21.6926 -0.00913178 -0.0932796
21.5857 0.00886564 -0.174512
21.588 0.0100288 -0.174631
21.6878 -0.0113855 -0.0667918
21.5571 0.0128777 -0.140119
21.6794 0.00794469 -0.139985
21.6297 0.00562406 -0.187713
21.598 0.0107046 -0.179473
21.6921 -0.00451111 -0.106535
21.6655 0.0118082 -0.162181
21.6453 0.00306866 -0.187055
21.6711 0.0149534 -0.153674
21.5482 0.0138744 -0.132311
21.6889 -0.0145393 -0.059161
21.6544 0.0071844 -0.178752
21.6579 0.00895272 -0.172603
21.6515 0.00552441 -0.180997
21.689 -0.00635071 -0.0759726
21.6607 0.0104318 -0.170266
21.6691 0.0127194 -0.158791
21.6418 0.00249948 -0.191208
21.6839 -0.0193438 -0.0295959
21.526 0.0155639 -0.0760157
21.5862 0.0113961 -0.175884
21.6116 0.0101528 -0.186036
21.6912 0.000355161 -0.119956
21.6741 0.0151535 -0.150108
21.6484 0.0039572 -0.187512
21.6644 0.0109954 -0.168248
21.692 -0.00792031 -0.0806567
21.5818 0.011169 -0.176055
21.6961 -0.00943882 -0.0897757
21.5574 -0.0516936 -0.00290231
21.3736 0.0157419 -0.00104291
21.5399 0.0148089 -0.114806
21.6892 -0.0139656 -0.0508767
21.689 -0.00795287 -0.0719044
21.637 0.0034339 -0.194951
21.6733 0.013038 -0.156094
21.6585 -0.0384514 -0.0139254
21.4984 0.0148309 -0.0383793
21.5909 0.0111678 -0.184591
21.6447 0.00220945 -0.192176
21.6679 0.0119069 -0.164689
21.6583 0.00649319 -0.180733
21.6536 0.00591447 -0.183966
21.6616 0.00799906 -0.174338
21.6957 -0.0109483 -0.0875058
21.6178 0.00857597 -0.196867
21.6868 0.00546268 -0.131913
21.6505 0.00445272 -0.190612
21.6653 0.00746646 -0.174396
21.6724 0.0130079 -0.159121
21.6017 0.0114483 -0.192257
21.6767 0.0126875 -0.151055
21.5963 0.013318 -0.190878
21.6739 0.012754 -0.156881
21.6899 -0.0139304 -0.0431563
21.5324 0.0157175 -0.0950709
21.6801 -0.0244944 -0.0251375
21.5138 0.0165345 -0.0707362
21.6684 0.00777692 -0.172375
21.6463 0.00286993 -0.197271
21.6966 -0.00932122 -0.0862663
21.5763 0.0132141 -0.177616
21.6981 -0.00823635 -0.0872381
21.7004 -0.00969663 -0.090521
21.5636 0.0136032 -0.166507
21.6944 -0.00933309 -0.0792811
21.6715 0.00954424 -0.168193
21.642 0.00223301 -0.201782
21.5859 0.0130817 -0.187156
21.6988 -0.00696781 -0.0996279
21.6816 0.0112345 -0.144799
21.6238 0.00725795 -0.206798
21.5506 0.0143377 -0.154479
21.6916 -0.0114982 -0.0698407
21.5936 0.014261 -0.193212
21.6487 0.00389135 -0.200704
21.6688 0.00305502 -0.180625
21.6981 -0.00386393 -0.111283
21.5957 0.0122672 -0.196333
21.598 0.0125804 -0.197643
21.6747 0.0105541 -0.164909
21.5418 0.0152467 -0.146773
21.6923 -0.0140632 -0.0619889
21.6435 0.00142454 -0.208177
21.6722 0.00546818 -0.175464
21.7014 -0.00832229 -0.0904733
21.6894 -0.0180196 -0.035334
21.5211 0.0171016 -0.0882199
21.6048 0.0112394 -0.20491
21.6935 0.00344083 -0.124131
21.6561 0.00430629 -0.198132
21.6701 0.00277629 -0.182121
21.651 0.00396345 -0.202923
21.6698 0.00200259 -0.184509
21.6781 0.0116955 -0.159342
21.6311 0.0050406 -0.211369
21.674 0.00858745 -0.171442
21.6998 -0.00907074 -0.086059
21.5963 0.0139764 -0.197386
21.5806 0.0130616 -0.19423
21.7015 -0.0059583 -0.0966308
21.5315 0.0160659 -0.139553
21.6929 -0.0158343 -0.0550246
21.5903 0.0128703 -0.199492
21.702 -0.00325501 -0.10801
21.672 0.00427048 -0.179384
21.6476 0.00261211 -0.207487
21.6885 0.00974096 -0.13663
21.613 0.00924149 -0.215359
21.677 0.0105185 -0.165676
21.5843 0.0134995 -0.198731
21.7017 -0.00486673 -0.105193
21.6824 0.0122298 -0.156581
21.6745 0.00734527 -0.175421
21.6439 0.00167068 -0.211436
21.598 0.0123971 -0.206989
21.6887 -0.021784 -0.0269821
21.5101 0.0185348 -0.083915
20 -1.14209e-10 -3.79967e-11
20 -1.77133e-10 -8.56377e-12
21.6503 0.00382166 -0.20855
21.6097 -0.050048 -0.00724878
21.4195 0.0189672 -0.0219058
21.6718 0.00297686 -0.182254
21.6935 -0.0165478 -0.0475978
21.5234 0.0172989 -0.121484
21.6384 0.00268499 -0.215347
21.6765 0.0101412 -0.171711
21.6192 0.00800639 -0.221985
21.6853 0.0132012 -0.150701
21.574 0.0149388 -0.194664
21.7035 -0.0069772 -0.0947012
21.5597 0.0152604 -0.187332
21.7019 -0.0116589 -0.0832054
21.6751 0.00554077 -0.179209
21.5813 0.0152427 -0.203394
21.7035 -0.00469061 -0.102787
21.6478 0.0012923 -0.212299
21.5839 0.0127565 -0.205117
21.7042 -0.00149969 -0.105345
21.6816 0.0125295 -0.163129
21.587 0.0141239 -0.204426
21.7068 -0.00318267 -0.108116
21.5487 0.0158909 -0.174034
21.6988 -0.0123567 -0.0739055
21.6517 0.00453123 -0.212951
21.6795 0.0113089 -0.168174
21.661 0.00644524 -0.202504
21.6545 0.00684078 -0.211233
21.5912 0.0141499 -0.213253
21.7017 0.00039969 -0.116059
21.6767 0.00981339 -0.175669
21.67 0.0052438 -0.192014
21.6946 -0.017477 -0.0403967
21.6834 0.0138101 -0.160039
21.5152 0.0185776 -0.0962351
21.6817 -0.0289143 -0.0213888
21.4971 0.0196631 -0.0703322
21.6889 0.0142034 -0.14823
21.5371 0.0167235 -0.161248
21.6957 -0.0143477 -0.0641507
21.6484 0.0026434 -0.217738
21.672 0.00673329 -0.18835
21.696 0.00752227 -0.128638
21.6001 0.0123132 -0.224213
21.6252 0.00677918 -0.22834
21.6782 0.0116161 -0.173955
21.5828 0.0164336 -0.205946
21.7069 -0.000536459 -0.107178
21.6836 0.0118406 -0.164675
21.6752 0.00956556 -0.183937
21.6441 0.00171913 -0.223735
21.6553 0.00928375 -0.211935
21.6527 0.00598475 -0.218006
21.7054 -0.0057813 -0.0924611
21.5797 0.0150581 -0.206099