# vtk DataFile Version 2.0
foil_motorBike
ASCII
DATASET POLYDATA
POINTS 257 float
-0.0506909 -0.0214019 0.497127
-0.0510924 -0.0214869 0.497074
-0.264417 0.00126819 0.424514
-0.264298 -0.00116505 0.424592
-0.261872 0.0149384 0.425786
-0.260476 0.0185341 0.426519
-0.25465 0.0282132 0.429471
-0.261302 -0.015156 0.426139
-0.260195 -0.0182477 0.42671
-0.255348 -0.0259309 0.429189
-0.0505671 -0.021372 0.49714
-0.00581631 -0.0746493 0.494369
2.1684e-19 -0.0786207 0.493837
-0.0286683 -0.0161667 0.49896
-0.0213222 -0.0145875 0.499356
-0.00625663 -0.0110638 0.499843
-0.0856498 -0.046366 0.490492
-0.0923037 -0.0489063 0.488997
-0.0818732 -0.0421428 0.491497
-0.0704684 -0.0300308 0.494114
-0.138556 -0.049638 0.477871
-0.129684 -0.0485548 0.480486
-0.149699 -0.0514021 0.474326
-0.116767 -0.0508185 0.483527
-0.10711 -0.0495353 0.485908
-0.188163 -0.057598 0.459773
-0.204463 -0.0549108 0.453045
-0.162713 -0.0538379 0.469744
-0.168935 -0.0552567 0.467418
-0.185945 -0.0578631 0.460635
-0.237884 -0.0419055 0.437856
-0.231245 -0.0455525 0.441025
-0.246786 -0.0350221 0.433514
-0.250939 -0.031194 0.43146
-0.222256 -0.0496604 0.445164
-0.209155 -0.0538251 0.451032
-0.163539 0.0552176 0.469314
-0.14924 0.0524344 0.474361
-0.16844 0.0564273 0.467473
-0.186609 0.0589642 0.460256
-0.187664 0.0588427 0.459846
-0.205129 0.0559898 0.452633
-0.106688 0.0503987 0.485908
-0.117424 0.0518875 0.483254
-0.0928177 0.0497415 0.488808
-0.129039 0.0499399 0.480511
-0.139253 0.0507731 0.477546
-0.0852851 0.0470313 0.490482
-0.0810846 0.0421622 0.491617
-0.050711 0.0216138 0.497115
-0.0505858 0.0215848 0.49713
-0.070322 0.0302921 0.494118
-0.0055625 0.0742252 0.494437
-0.00628792 0.0110105 0.499844
0 0.00982466 0.49995
-0.0213609 0.0146538 0.499353
-0.0286067 0.0162727 0.498961
-0.0502459 0.0214962 0.497161
-0.251469 0.0319735 0.431111
-0.249042 0.0346555 0.432282
-0.238614 0.0429248 0.437347
-0.208602 0.0551982 0.451141
-0.222925 0.0506851 0.444722
-0.230625 0.0472275 0.44117
5.42101e-20 -0.00991483 0.499948
-1.73472e-18 0.0777162 0.493976
0.0558442 0.0124189 0.496731
0.0435327 0.0093246 0.498026
0.0727196 0.0164841 0.494468
0.105818 0.110587 0.47603
0.113516 0.103584 0.475812
0.0730436 -0.0170319 0.494411
0.0772279 -0.0177504 0.493768
0.0557364 -0.0126068 0.496739
0.367706 0.130788 0.312708
0.366419 0.129508 0.314759
0.378605 0.134821 0.297478
0.372467 -0.109808 0.315182
0.463569 0.0815644 0.168731
0.468619 0.0704009 0.159489
0.460828 0.0862884 0.173855
0.47164 0.0558995 0.156358
0.472633 0.0474968 0.156143
0.474257 0.0291779 0.155768
0.451242 0.0996657 0.191118
0.441624 0.110045 0.20724
0.452946 0.0975146 0.18817
0.391833 0.134477 0.280237
0.391293 0.134518 0.280952
0.40474 0.131666 0.262444
0.410324 0.129514 0.254687
0.392604 0.134394 0.279158
0.41756 0.126199 0.244386
0.426326 0.121562 0.231295
0.429803 0.119464 0.225936
0.439935 0.111582 0.209977
0.472929 -0.0481291 0.155094
0.474502 -0.0287809 0.155126
0.472157 -0.0551284 0.155116
0.463312 -0.0833687 0.168615
0.46118 -0.0870351 0.172606
0.468883 -0.0710265 0.158433
0.474665 0.022435 0.155653
0.475279 0.00304076 0.155389
0.475303 -0.003 0.155322
0.474821 -0.0227355 0.155157
0.372304 0.106252 0.316551
0.370305 0.107178 0.318569
0.375685 0.0569504 0.325062
0.384025 0.0571766 0.315116
0.37962 0.0602319 0.320007
0.383477 0.0387489 0.318646
0.392043 0.027115 0.309259
0.452612 -0.0995485 0.188012
0.451758 -0.100661 0.189474
0.441199 -0.112335 0.207031
0.403981 -0.134654 0.262059
0.393199 -0.13728 0.276807
0.440661 -0.112845 0.207895
0.429299 -0.121894 0.225682
0.427299 -0.123135 0.22875
0.416925 -0.128963 0.244062
0.41163 -0.131515 0.251534
0.385018 -0.0403858 0.316515
0.380891 -0.0454806 0.32075
0.375912 -0.0571913 0.324763
0.375489 -0.0642893 0.323929
0.381069 -0.0627756 0.317717
0.379133 -0.0641064 0.31976
0.301646 0.0346332 0.397402
0.297149 0.01442 0.401942
0.291543 0.0252973 0.405497
0.29898 0.00852223 0.40078
0.299096 -0.00861352 0.400693
0.297767 -0.0140207 0.401507
0.292021 -0.0257372 0.405119
0.361246 0.115366 0.325914
0.24644 0.053848 0.431892
0.246371 0.0538663 0.431929
0.252814 0.0521006 0.42828
0.264239 0.0476155 0.421948
0.265769 0.046769 0.421074
0.280121 0.0543654 0.410644
0.279593 0.0381924 0.412848
0.284712 0.0334746 0.409723
0.288104 0.0468507 0.406026
0.299572 0.0366002 0.398769
0.38745 -0.137903 0.284443
0.377772 -0.138037 0.297092
0.391 -0.137569 0.27982
0.366601 -0.133145 0.313037
0.365741 -0.132093 0.314558
0.3657 -0.132042 0.314627
0.371441 -0.110316 0.316219
0.365334 -0.112883 0.322197
0.364364 -0.13024 0.316821
0.291964 -0.0507181 0.402801
0.284477 -0.0348072 0.409784
0.280061 -0.0386779 0.412495
0.265486 -0.0478786 0.421152
0.264792 -0.0482762 0.421547
0.261302 -0.0498601 0.423459
0.247088 -0.0546399 0.431395
0.246001 -0.0549197 0.431981
0.105949 -0.110799 0.475949
0.113462 -0.103588 0.475824
0.0968003 -0.113538 0.47723
0.079722 -0.105487 0.482307
0.0568553 -0.115184 0.483228
0.0490131 -0.111139 0.48508
0.0411068 -0.106989 0.486689
0.043518 -0.00929944 0.498028
0.0104233 -0.0863596 0.492516
0.012087 -0.0875901 0.492251
0.0338678 -0.0072431 0.498823
0.0174098 -0.00792599 0.49965
0.00764918 -0.00869284 0.499877
0.11767 -0.0896344 0.477648
0.0149061 -0.0897107 0.49174
0.0300115 -0.100408 0.488919
0.0783474 -0.103372 0.482992
0.079112 -0.0844396 0.486436
0.0952511 -0.0727256 0.485442
0.108563 -0.075131 0.482276
0.0850904 -0.0775421 0.486598
0.115738 -0.0827537 0.479447
0.131566 -0.0746578 0.476597
0.114386 -0.0808187 0.480104
0.139303 -0.0744788 0.474439
0.138473 -0.0495023 0.47791
0.129478 -0.0489973 0.480494
0.150281 -0.0500901 0.474282
0.122822 -0.0412097 0.48296
0.115343 -0.032631 0.48545
0.10012 -0.0232553 0.489428
0.0977869 -0.0227 0.489943
0.0904396 -0.0209691 0.491343
0.153393 -0.0738323 0.470153
0.161226 -0.0732153 0.467646
0.173716 -0.0718439 0.463335
0.182849 -0.0706415 0.46002
0.193052 -0.0691843 0.45603
0.190371 -0.0520885 0.459454
0.204484 -0.0549443 0.453032
0.161563 -0.0519191 0.470341
0.171544 -0.049088 0.467127
0.181548 -0.0505738 0.463143
0.227905 -0.058189 0.441363
0.226482 -0.058367 0.442076
0.216682 -0.0580595 0.446899
0.208315 -0.0559118 0.451199
0.0502251 0.109087 0.485465
0.0456517 0.10686 0.486355
0.0543145 0.111047 0.484537
0.0696492 0.118537 0.480733
0.0971085 0.112985 0.477302
0.0805462 0.105444 0.482163
0.151337 0.0704767 0.471321
0.140806 0.0711759 0.47449
0.162889 0.069364 0.467652
0.161198 0.0513107 0.470531
0.150481 0.049639 0.474266
0.171783 0.0485211 0.467101
0.171487 0.0682367 0.464713
0.184678 0.0661678 0.459974
0.18111 0.0498469 0.463393
0.19064 0.0514166 0.459415
0.203896 0.0539944 0.453395
0.190531 0.0652047 0.457706
0.0774788 0.0172722 0.493737
0.116558 0.0827126 0.47924
0.118068 0.0902651 0.477425
0.114737 0.0800889 0.480127
0.129737 0.0717375 0.477532
0.107687 0.0737298 0.482681
0.0980663 0.0221466 0.489925
0.0996755 0.0225125 0.489571
0.0928989 0.0209446 0.490909
0.129624 0.0486825 0.480489
0.138221 0.0490922 0.478027
0.1234 0.0411954 0.482815
0.115632 0.0320346 0.485419
0.0130289 0.0866784 0.492414
0.0127517 0.086482 0.492461
0.0787513 0.102649 0.483064
0.0791799 0.0844369 0.486426
0.0309688 0.0987876 0.489176
0.095556 0.0721609 0.485468
0.0849919 0.0773842 0.486638
0.00773213 0.0085516 0.499879
0.0173086 0.00775388 0.499658
0.0340452 0.00693877 0.498818
0.208625 0.0551423 0.451137
0.219136 0.0577996 0.44574
0.227327 0.0573884 0.44179
0.226833 0.0574531 0.442038
0.0125719 0.0863549 0.492489
POINT_DATA 257
 FIELD attributes 1
edgeIndex 1 257 float
83 84 2240 2241 3941 3954 3955 7248 7260 7262 8010 8014 8015 8026 8027 8034 8059 8060 8065 8066 8076 8077 8079 8088 8089 8128 8129 8130 8131 8133 8144 8145 8146 8147 8154 8155 8441 8442 8444 8456 8457 8459 8475 8476 8478 8486 8487 8526 8528 8531 8532 8533 8535 8538 8540 8546 8547 8548 8561 8569 8570 8571 8572 8574 9462 9482 9560 9562 9563 9576 9577 9598 9599 9601 9900 9902 9916 9993 11134 11135 11137 11147 11148 11150 11189 11190 11191 11192 11194 11204 11205 11206 11215 11216 11222 11223 11309 11310 11312 11316 11317 11324 11342 11343 11352 11353 11443 11446 11463 11468 11469 11470 11475 11594 11595 11597 11633 11634 11635 11636 11638 11639 11641 11705 11706 11708 11710 11715 11716 11763 11766 11767 11769 11781 11782 11784 13176 13460 13461 13462 13464 13467 13477 13478 13479 13484 13485 16205 16206 16216 16415 16427 16429 16450 16451 16452 16768 16769 16771 16782 16783 16784 16790 16792 17404 17405 17420 17422 17431 17437 17439 17508 17509 17510 17522 17523 17528 17530 17531 17533 17539 17540 17543 17544 17551 17564 17566 17567 17569 17570 17571 17573 17584 17586 17592 17593 17598 17614 17615 17617 17618 17620 17622 17623 17624 17625 17627 17635 17636 17647 17649 17854 17855 17863 17864 17871 17872 17926 17927 17929 17930 17931 17933 17942 17944 17945 17946 17948 17952 17957 17958 17959 17960 17961 17963 17968 17969 17970 17975 17976 17977 17978 17990 17991 17995 17997 18001 18005 18006 18027 18034 18035 18059 18061 18064 18065 18877
