# vtk DataFile Version 2.0
motorBike_foil
ASCII
DATASET POLYDATA
POINTS 776 float
0.362505 -0.125875 0.320562
0.362489 -0.125838 0.320594
0.367248 -0.133934 0.311891
0.369533 -0.135454 0.308402
0.365852 -0.132232 0.31436
0.364471 -0.130493 0.316601
0.42738 -0.123085 0.228625
0.430036 -0.121397 0.224482
0.420617 -0.126894 0.23861
0.419224 -0.127694 0.240657
0.422804 -0.125705 0.235362
0.426018 -0.123874 0.23063
0.404434 -0.134475 0.261432
0.406588 -0.133635 0.258444
0.403196 -0.134933 0.263088
0.399446 -0.136036 0.26812
0.402281 -0.135235 0.264299
0.396164 -0.13678 0.272638
0.3847 -0.13813 0.287949
0.386009 -0.138026 0.286279
0.381991 -0.138229 0.291463
0.39584 -0.136837 0.273092
0.392416 -0.137395 0.277873
0.395989 -0.136814 0.272883
0.362475 -0.125775 0.320633
0.360964 -0.114545 0.3265
0.361004 -0.114943 0.326324
0.361173 -0.11447 0.326292
0.361387 -0.120369 0.323887
0.370544 -0.136075 0.30688
0.373468 -0.137128 0.302807
0.374663 -0.137506 0.301165
0.377755 -0.138035 0.297114
0.37953 -0.138233 0.294693
0.426448 -0.123631 0.229997
0.431132 -0.120627 0.222713
0.416803 -0.129025 0.244233
0.408521 -0.132836 0.255788
0.389137 -0.137738 0.282249
0.3892 -0.137733 0.282166
0.389164 -0.137736 0.282214
0.411424 -0.131604 0.251816
0.413142 -0.130816 0.249386
0.409893 -0.13227 0.253901
0.415538 -0.12965 0.246012
0.416363 -0.129248 0.244848
0.379503 0.134943 0.296242
0.380958 0.134974 0.294316
0.37667 0.134507 0.300005
0.362933 -0.113801 0.32456
0.366455 -0.112451 0.321085
0.433192 -0.119087 0.219437
0.434739 -0.117873 0.217006
0.435575 -0.117193 0.215704
0.43707 -0.115939 0.213397
0.438827 -0.114462 0.210685
0.439964 -0.113463 0.208955
0.362114 0.120593 0.322977
0.361331 0.116624 0.325348
0.374598 0.134106 0.30274
0.384694 0.134925 0.289432
0.442983 -0.110511 0.203992
0.447151 -0.106004 0.197009
0.447845 -0.105227 0.19586
0.44447 -0.108933 0.201485
0.364326 0.126839 0.318133
0.364962 0.12766 0.317104
0.363362 0.124538 0.320087
0.362389 0.122189 0.322069
0.372493 0.133387 0.305655
0.385214 0.1349 0.288762
0.366838 -0.11228 0.320714
0.457001 -0.0932663 0.180058
0.455907 -0.0948579 0.182028
0.463089 -0.0837893 0.169016
0.462262 -0.0851952 0.170572
0.452127 -0.100181 0.188842
0.453545 -0.0982379 0.18631
0.450829 -0.101785 0.190969
0.45062 -0.10203 0.191311
0.367089 0.130353 0.313622
0.368659 0.131447 0.311242
0.370464 0.132608 0.308503
0.361009 0.112119 0.327255
0.387864 0.134728 0.28536
0.389149 0.134648 0.283709
0.389381 0.13463 0.283411
0.398731 0.133385 0.270532
0.395894 0.133902 0.274501
0.393691 0.13425 0.27761
0.392668 0.134386 0.279066
0.419923 0.12496 0.240852
0.419493 0.125175 0.241499
0.421135 0.124324 0.239039
0.416098 0.126907 0.246449
0.41583 0.12703 0.246829
0.424489 0.122562 0.234024
0.428374 0.120362 0.228122
0.425472 0.122032 0.232562
0.42911 0.119917 0.226987
0.371692 -0.110202 0.315961
0.469059 -0.0705396 0.158103
0.468872 -0.0710535 0.158452
0.46916 -0.07022 0.157932
0.470713 -0.0654827 0.155196
0.46716 -0.0752635 0.161384
0.466306 -0.0771233 0.162961
0.465158 -0.0796271 0.165077
0.463388 -0.0832145 0.168469
0.460878 -0.0875069 0.173132
0.460373 -0.088266 0.174029
0.458344 -0.0912955 0.177648
0.453843 -0.0978155 0.185767
0.399444 0.133211 0.269559
0.403017 0.132215 0.264735
0.400695 0.132854 0.267874
0.404364 0.131791 0.262942
0.413381 0.128165 0.25031
0.409931 0.129675 0.255227
0.410135 0.129592 0.254946
0.409662 0.12978 0.2556
0.406516 0.131011 0.259962
0.432091 0.11785 0.222247
0.433466 0.116831 0.220055
0.360953 0.110771 0.327764
0.365484 0.109115 0.323282
0.366856 0.108548 0.321946
0.370783 0.106978 0.31808
0.429571 0.119614 0.226289
0.372757 -0.109653 0.314876
0.471344 -0.0609706 0.155154
0.434899 0.115715 0.217799
0.437415 0.113688 0.213872
0.438233 0.113028 0.212596
0.438772 0.112573 0.211765
0.442508 0.109175 0.205715
0.376597 -0.107649 0.310812
0.443533 0.108127 0.203968
0.446768 0.104717 0.198504
0.447035 0.104428 0.198057
0.448344 0.10297 0.195886
0.449973 0.101151 0.193186
0.450246 0.100835 0.192741
0.372763 0.106021 0.316067
0.375339 -0.0665866 0.323584
0.379357 -0.0639525 0.319524
0.375784 -0.0592595 0.324525
0.375867 -0.057921 0.324678
0.378623 -0.106518 0.308693
0.471451 -0.0602025 0.155149
0.452685 0.0978463 0.18862
0.45358 0.0966457 0.187002
0.376247 -0.0510393 0.325299
0.376379 -0.0489133 0.325465
0.38031 -0.0461616 0.321322
0.472224 -0.0545217 0.155112
0.462418 0.0836724 0.170829
0.460418 0.0869116 0.174582
0.463078 0.0824646 0.169626
0.464563 0.0796088 0.166799
0.4601 0.0873943 0.175145
0.455271 0.0943012 0.183899
0.457659 0.0909242 0.17955
0.456727 0.0922494 0.181245
0.459998 0.0875419 0.175328
0.375765 0.104571 0.312884
0.380858 -0.0629209 0.31794
0.381141 -0.0451739 0.320494
0.472319 -0.0536525 0.155112
0.466024 0.0765106 0.164062
0.468519 0.0706786 0.159648
0.467732 0.0725801 0.161009
0.468877 0.069607 0.159039
0.466586 0.0753218 0.163008
0.383623 -0.0609163 0.31488
0.386206 -0.0590353 0.312011
0.386512 -0.0588125 0.311671
0.473024 -0.0469839 0.155091
0.473127 -0.0457081 0.155094
0.470202 0.0656884 0.156656
0.470823 0.0614587 0.156527
0.378637 0.102935 0.309916
0.38455 -0.0409682 0.316994
0.473696 -0.0387561 0.155094
0.473784 -0.037669 0.155098
0.474384 -0.0302562 0.155119
0.474638 -0.0262057 0.15514
0.474341 -0.0307839 0.155116
0.471063 0.0598425 0.156472
0.375321 0.0629248 0.324369
0.378989 0.0606438 0.320671
0.375709 0.0565208 0.325099
0.391995 -0.0548199 0.305579
0.392132 -0.0547203 0.305427
0.385002 -0.0404059 0.316531
0.474793 -0.0232617 0.155155
0.471579 0.0563189 0.15637
0.375842 0.0542412 0.325287
0.376201 0.0479277 0.325819
0.376369 0.0453177 0.326016
0.37982 0.0430039 0.322365
0.380754 0.0594458 0.318749
0.39229 -0.0546055 0.305251
0.474816 -0.0228284 0.155156
0.474992 -0.015856 0.155206
0.471867 0.0539877 0.156306
0.387772 -0.0367153 0.313489
0.388579 -0.0355547 0.312612
0.475 -0.0155197 0.155208
0.471978 0.0530435 0.156285
0.472557 0.0481497 0.156158
0.472846 0.0451059 0.156091
0.473094 0.042344 0.156024
0.473444 0.0383901 0.155947
0.47392 0.0330185 0.155834
0.380894 0.041794 0.321301
0.383248 0.0577168 0.315979
0.385606 0.0560704 0.313352
0.386303 0.0555838 0.312573
0.47517 -0.00852765 0.155268
0.475298 -0.00184357 0.155334
0.475196 -0.00748395 0.155277
0.475289 0.000685222 0.155362
0.475222 0.00489642 0.15541
0.474179 0.0300627 0.155784
0.474495 0.0252484 0.1557
0.474534 0.0246132 0.155688
0.392832 -0.0291612 0.308025
0.393277 -0.0284134 0.307554
0.390333 -0.0330753 0.310701
0.47507 0.00971261 0.155472
0.474802 0.0181642 0.155589
0.474771 0.0191615 0.155602
0.474979 0.0126204 0.155509
0.474612 0.0233147 0.155667
0.384143 0.037898 0.31791
0.384814 0.0370317 0.317169
0.391406 0.0520207 0.306873
0.39368 -0.027575 0.307147
0.387408 0.0337104 0.314303
0.391812 0.0517372 0.306419
0.388508 0.0321952 0.3131
0.392276 0.0514135 0.305901
0.390083 0.0300612 0.311374
0.392413 0.0265473 0.308852
0.393086 0.0254393 0.308119
0.393684 0.0242037 0.307486
-0.11127 -0.0499821 0.484895
-0.112704 -0.050196 0.484538
-0.11785 -0.0509772 0.483237
-0.122736 -0.0517499 0.481923
-0.124248 -0.0519995 0.481516
-0.126622 -0.0524095 0.480874
-0.12398 0.0529628 0.481487
-0.126247 0.0533652 0.480873
-0.122546 0.0527196 0.481874
-0.117596 0.0519135 0.483208
-0.112521 0.0511113 0.484477
-0.111037 0.0508829 0.484846
-0.128221 0.0509887 0.480612
-0.108616 -0.0495969 0.485553
-0.128523 -0.0500759 0.480627
-0.0908226 -0.0488467 0.489272
-0.0878876 -0.0487347 0.489816
-0.0977822 -0.0491251 0.487856
-0.0921305 -0.0488989 0.489029
-0.129472 0.0493964 0.480451
-0.102115 0.0501739 0.486865
-0.10438 0.0502867 0.486391
-0.0975459 0.0499536 0.487821
-0.0919227 0.0496991 0.488975
-0.104599 -0.0494248 0.486433
-0.102287 -0.0493209 0.486915
-0.129786 -0.0484242 0.480473
-0.0847678 -0.0453116 0.490734
-0.0800683 -0.0399662 0.49193
-0.108305 0.0504722 0.485525
-0.0905724 0.0496381 0.489226
-0.0875405 0.049508 0.48979
-0.0741749 -0.0334086 0.493303
-0.0781922 -0.03779 0.492374
-0.084511 0.0460695 0.490698
-0.0795072 -0.0392684 0.492066
-0.0719494 -0.0312335 0.493801
-0.0797693 0.0405036 0.491937
-0.0740055 0.0337495 0.493305
-0.0780744 0.0384322 0.492346
-0.0792784 0.0398591 0.492059
-0.0718384 0.0315219 0.493797
0.16417 -0.0523463 0.469384
0.167416 -0.0529241 0.468187
0.162255 -0.0520305 0.470087
0.157973 -0.0513213 0.471597
0.168787 -0.0512679 0.467874
0.170595 -0.0489501 0.467474
0.15249 -0.0504189 0.473513
0.151749 -0.0503049 0.473772
0.15025 -0.0500852 0.474291
0.145259 -0.0498305 0.475826
0.142662 -0.0497042 0.476623
0.162562 0.0515231 0.470031
0.158251 0.050835 0.47156
0.138624 -0.0495088 0.477863
0.132863 -0.0492497 0.479514
0.13189 -0.0492098 0.479792
0.164436 0.0518235 0.469343
0.1676 0.052369 0.468178
0.1528 0.0499715 0.473462
0.152004 0.0498535 0.473738
0.169004 0.0506551 0.467859
0.129586 -0.0491153 0.48045
0.150404 0.0496273 0.474291
0.145508 0.0494047 0.475793
0.170763 0.0483785 0.467473
0.126353 -0.0451706 0.481669
0.142955 0.0492945 0.476576
0.138868 0.0491161 0.477829
0.133177 0.0488942 0.479467
0.132141 0.0488582 0.479762
0.122176 -0.0404088 0.483179
0.129704 0.0487715 0.480456
0.121403 -0.0394071 0.483445
0.126761 0.045076 0.481575
0.119707 -0.0374232 0.484012
0.116421 -0.0337181 0.485102
0.125243 0.0433452 0.482133
0.122343 0.0398246 0.483178
0.120947 0.0382445 0.483642
0.11456 -0.0317273 0.485679
0.11686 0.0333063 0.48502
0.114784 0.0310277 0.485669
-0.00841546 -0.0728785 0.494559
-0.00843955 -0.0728637 0.49456
-0.00822824 -0.073005 0.494545
0.000333311 -0.0788488 0.493798
0.00925147 -0.0855001 0.492663
0.00633494 -0.0832783 0.493041
0.0118364 -0.0874022 0.492291
0.0016374 -0.0798396 0.493629
0.0167648 -0.0911123 0.491377
0.0173107 -0.0915044 0.491274
0.0188243 -0.0926004 0.490987
0.0244642 -0.0966924 0.489915
0.0227958 -0.0955077 0.490227
0.0283015 -0.0993051 0.489218
0.0530109 -0.113218 0.484131
0.0583078 -0.115933 0.482858
0.0516333 -0.112494 0.48446
0.0465374 -0.109876 0.485575
0.0610792 -0.117453 0.482132
0.0663178 -0.1203 0.480765
0.0594637 -0.11655 0.482559
0.0456946 -0.109425 0.485748
0.0690203 0.118228 0.48089
0.0699675 0.118696 0.480642
0.0630725 0.115211 0.482391
0.0414149 -0.107152 0.486626
0.0323567 -0.101936 0.488419
0.0340223 -0.102972 0.488075
0.0602361 0.113886 0.483081
0.0561008 0.111884 0.484102
0.0441271 0.1061 0.486632
0.0463759 0.107223 0.486212
0.0383968 0.103163 0.487689
0.0375617 0.102705 0.487849
0.0346687 0.100995 0.488429
0.031668 0.09921 0.489034
0.0307515 0.0986578 0.489212
0.0399245 -0.106365 0.486911
0.0395666 -0.106171 0.486979
-0.00212156 0.076424 0.494146
-0.00793683 0.0727048 0.494596
0.0530133 0.110441 0.484828
0.0499133 0.108937 0.485525
0.0257502 0.0954165 0.490089
0.0232968 0.0938297 0.490519
0.00895366 0.0838065 0.492926
0.00794577 0.0831074 0.493046
0.000659025 0.078117 0.493906
0.0156618 0.0885649 0.491918
0.0142816 0.0875677 0.492179
0.0199047 0.0914807 0.491142
0.188243 -0.0698802 0.45791
0.193523 -0.0691156 0.455837
0.186219 -0.0701652 0.458702
0.197452 -0.0685876 0.454212
0.185001 -0.0703451 0.459177
0.179506 -0.0710962 0.461231
0.00765437 0.0829176 0.493079
0.174314 -0.07177 0.463117
0.177824 -0.0713229 0.461841
0.169846 -0.0723182 0.464663
0.168366 -0.0724955 0.465171
0.166741 -0.0726729 0.465732
0.162044 -0.0731453 0.46736
0.158762 -0.0734245 0.468432
0.155773 -0.0736739 0.469387
0.149944 -0.0740568 0.471192
0.150603 -0.0740168 0.470993
0.149546 -0.0740761 0.471313
0.144409 -0.0743072 0.472876
0.289535 -0.0528729 0.404223
0.287386 -0.0548412 0.405473
0.140959 -0.0744293 0.473931
0.289854 -0.0525933 0.404036
0.29514 -0.0480041 0.400777
0.139655 -0.07447 0.474331
0.295287 -0.0478747 0.400684
0.296125 -0.0471298 0.400153
0.134787 -0.0745908 0.475697
0.133808 -0.07461 0.475971
0.129106 -0.0747101 0.477229
0.126615 -0.0747664 0.47787
0.120357 -0.0749329 0.479474
0.163376 0.0693103 0.467484
0.158281 0.0698628 0.469107
0.155728 0.070114 0.469917
0.149621 0.0706168 0.471833
0.156482 0.070048 0.469677
0.142548 0.0710809 0.473962
0.145954 0.0708679 0.472935
0.165876 0.0689892 0.466628
0.178395 0.0672049 0.462224
0.184616 0.0661778 0.459996
0.191096 0.0651102 0.457475
0.191168 0.0650985 0.457445
0.191026 0.0651223 0.457503
0.177399 0.0673642 0.462581
0.176086 0.0675686 0.463053
0.170357 0.068399 0.465097
0.280147 0.0543403 0.410629
0.279834 0.0546613 0.410799
0.286714 0.0481092 0.406837
0.289991 0.0452078 0.404828
0.284165 0.0503359 0.408334
0.127062 -0.0747528 0.477755
0.135916 0.0714367 0.475832
0.135845 0.0714401 0.475852
0.135645 0.0714498 0.475907
0.128391 0.0718018 0.477873
0.197467 0.0639875 0.45488
0.203383 0.0630201 0.452459
0.292723 0.042827 0.403092
0.294662 0.041131 0.401862
0.297012 0.0389716 0.400381
0.300374 0.0358771 0.398237
0.126081 0.0719408 0.478453
0.121753 0.0721743 0.479544
0.301855 0.0344373 0.397253
0.305193 0.0312565 0.394879
0.0860626 -0.0197767 0.49215
0.087234 -0.0201966 0.491931
0.105995 0.0239378 0.488062
0.105664 0.0238573 0.488141
0.0992243 0.022403 0.489671
0.0958247 0.0215872 0.490354
0.0873803 0.0196497 0.491921
0.0861723 0.0192238 0.492146
0.105931 -0.0246229 0.488037
0.10558 -0.0245356 0.488121
0.0849531 -0.0195612 0.492352
0.0991036 -0.0229987 0.489653
0.0957638 -0.0221838 0.490331
0.106611 -0.0248078 0.487873
0.106639 0.024108 0.487907
0.0926344 0.0208847 0.490957
0.111485 0.0280644 0.486585
0.09253 -0.0214576 0.490945
0.111326 -0.0287498 0.486581
0.0850265 0.0190086 0.492355
0.0794199 -0.018056 0.493372
0.0795131 0.0175436 0.49337
0.0648639 0.0141461 0.495534
0.0715423 0.01626 0.494624
0.071547 0.0162608 0.494624
0.0584678 0.0130767 0.496378
0.0579251 0.0128949 0.496452
0.0715445 0.0162602 0.494624
0.0575859 0.0128053 0.496498
0.0714802 -0.0167246 0.494619
0.0507221 0.0108555 0.497273
0.0582406 -0.0131048 0.496406
0.0611447 -0.0140837 0.496009
0.0558337 -0.0126295 0.496726
0.0646321 -0.0145608 0.495552
0.0714463 -0.0167182 0.494623
0.0714613 -0.0167202 0.494621
0.0391849 0.00893681 0.498368
0.033522 0.00666996 0.498848
0.0428708 0.00913582 0.498082
0.0464071 0.00997914 0.497724
0.0512558 -0.0112554 0.497214
0.0477975 -0.0109053 0.49757
0.0429269 -0.00904294 0.49808
0.0336414 -0.00714737 0.498836
0.0384012 -0.00858202 0.498438
0.0270359 -0.00817821 0.499157
0.0269209 0.00793466 0.499166
0.026574 -0.00810168 0.499181
0.0266478 0.00789026 0.499181
0.0264187 -0.00810428 0.499189
0.0191664 -0.0077469 0.499563
0.0265388 0.00789277 0.499186
0.0191829 0.00754968 0.499565
0.0115377 0.00803919 0.499797
0.0181882 0.00764591 0.499614
0.0181627 -0.00783748 0.499613
0.0115156 -0.00818763 0.499793
0.00987779 -0.00834378 0.49983
0.00399909 -0.00915054 0.499914
0.00989066 0.00820392 0.499834
0.00104043 -0.00968409 0.49994
-0.00311999 -0.010389 0.499898
0.00401491 0.0090347 0.499916
-0.00787418 -0.0113485 0.499793
0.00109877 0.00957438 0.499942
-0.0101584 -0.011852 0.49972
-0.00305723 0.0103079 0.499901
-0.00772182 0.0112664 0.4998
-0.0100738 0.0117902 0.499724
-0.0155329 -0.0134027 0.499538
-0.0154666 0.0133868 0.49954
-0.0238418 -0.0150581 0.499221
-0.0172533 -0.0136859 0.499486
-0.0169056 -0.0136184 0.499497
-0.0168321 0.013606 0.499499
-0.0171884 0.0136775 0.499488
-0.0237348 0.0151276 0.499225
-0.0375695 -0.0182408 0.498221
-0.0357144 -0.0177431 0.498377
-0.0263978 -0.0156046 0.499083
-0.0308007 -0.0166008 0.498784
-0.0412832 -0.0193296 0.497907
-0.0338772 0.0175074 0.498524
-0.0360403 0.0179075 0.498347
-0.0257802 0.0155422 0.499115
-0.0300871 0.0165919 0.498839
-0.0434032 -0.0197479 0.497733
-0.0406424 0.0193532 0.497955
-0.0427347 0.019766 0.497783
-0.0441964 -0.0199098 0.497668
-0.0496455 -0.0211284 0.497217
-0.0434632 0.0199167 0.497723
-0.0525978 -0.0217958 0.496864
-0.0493277 0.0212496 0.497238
-0.0558672 -0.0224929 0.496407
-0.0622392 -0.0239781 0.495509
-0.0628687 -0.0241325 0.49542
-0.0524293 0.0219738 0.496875
-0.0558107 0.0227068 0.496402
-0.0639697 -0.0244298 0.495263
-0.0620316 0.024168 0.495525
-0.0686523 -0.028347 0.494442
-0.0626216 0.024316 0.495441
-0.0637491 0.0246228 0.49528
-0.0684907 0.0285974 0.494448
-0.24033 -0.0405234 0.436614
-0.239314 -0.0411272 0.437127
-0.248091 -0.033927 0.432862
-0.252868 -0.0293849 0.43044
-0.230596 -0.0459166 0.441317
-0.226558 -0.0480612 0.443146
-0.237839 -0.0419309 0.437877
-0.263444 -0.00918721 0.424937
-0.260468 -0.0175532 0.426566
-0.264056 -0.00379779 0.424681
-0.254988 -0.0264923 0.429367
-0.260012 -0.0187436 0.42679
-0.214207 -0.052556 0.44873
-0.215756 -0.0520087 0.448043
-0.222057 -0.0497363 0.445252
-0.264494 0.00065167 0.424465
-0.26399 0.00521795 0.424689
-0.248244 0.035464 0.432652
-0.250311 0.0333863 0.43166
-0.238196 0.0432329 0.437538
-0.230505 0.0472921 0.441225
-0.240995 0.0410932 0.436185
-0.247197 0.0362621 0.433164
-0.238714 0.0428527 0.437298
-0.213126 -0.052923 0.449212
-0.205758 -0.0546196 0.452488
-0.260423 0.0186772 0.426542
-0.2631 0.0118555 0.425089
-0.25911 0.021779 0.427149
-0.255183 0.0275944 0.429184
-0.226252 0.0494672 0.44316
-0.221811 0.0511025 0.445214
-0.213938 0.0538867 0.448707
-0.215558 0.0533234 0.447988
-0.212809 0.0542637 0.449211
-0.198323 -0.0563261 0.455533
-0.205481 0.0559124 0.452481
-0.196095 -0.0566142 0.456462
-0.197323 -0.0564583 0.45595
-0.188438 -0.0575663 0.459658
-0.19796 0.0576068 0.455542
-0.195927 0.0578601 0.456391
-0.188152 0.0587886 0.459641
-0.197046 0.0577234 0.455924
-0.181233 0.059599 0.462233
-0.179202 0.0590506 0.46307
-0.177229 0.058559 0.463878
-0.169935 0.0567796 0.466863
-0.169246 -0.0553268 0.467291
-0.175798 -0.0569143 0.464612
-0.164122 -0.0541183 0.469221
-0.160813 -0.0534506 0.470416
-0.181622 -0.0583928 0.462222
-0.179606 -0.0578589 0.463052
-0.1786 -0.0576107 0.463464
-0.163019 0.0550861 0.469501
-0.152866 0.0530946 0.473087
-0.158941 0.054262 0.470944
-0.158315 -0.0529714 0.471297
-0.152461 -0.0518684 0.473359
-0.147764 -0.0510579 0.474945
-0.144475 -0.0504723 0.475998
-0.145918 0.0517981 0.475429
-0.161085 0.054687 0.470186
-0.141018 -0.0499812 0.477092
-0.145737 0.0517689 0.475486
-0.13686 -0.0493931 0.478375
-0.133676 -0.0489431 0.479321
-0.133404 0.0499377 0.479284
-0.13623 0.0503313 0.478446
-0.145617 0.0517502 0.475525
-0.139359 0.050788 0.477513
0.230566 -0.0578646 0.439961
0.224203 -0.058661 0.443144
0.251599 -0.0535064 0.428825
0.245645 -0.0550138 0.432162
0.22062 -0.0590969 0.444828
0.213585 -0.0572333 0.448494
0.222395 -0.0588873 0.443993
0.203015 -0.0545952 0.453706
0.205218 -0.0551148 0.452682
0.19646 -0.0532341 0.456693
0.20684 -0.0555263 0.451906
0.237055 -0.057014 0.436551
0.25301 -0.0530037 0.428041
0.239692 -0.0564064 0.435203
0.238403 -0.0567164 0.43586
0.246018 0.0539622 0.432108
0.25186 0.0524477 0.42881
0.24005 0.0553999 0.435151
0.193983 -0.0527675 0.457816
0.261402 -0.0498219 0.423403
0.263697 -0.0489194 0.422132
0.256212 -0.0518033 0.426269
0.230901 0.0569307 0.439911
0.237307 0.0560508 0.436551
0.238718 0.0557296 0.435829
0.186552 -0.0513367 0.46106
0.22465 0.0577481 0.443059
0.261679 0.0486968 0.423359
0.263904 0.0478056 0.422128
0.256924 0.0505448 0.425996
0.253447 0.0518706 0.427928
0.270155 -0.0452573 0.418347
0.22083 0.0582358 0.444851
0.213894 0.0564325 0.448436
0.186542 -0.0513351 0.461065
0.18653 -0.0513332 0.46107
0.179381 -0.0502344 0.464008
0.277148 -0.0412416 0.414155
0.222709 0.058003 0.443968
0.269809 0.0445787 0.41864
0.174424 -0.0494945 0.465983
0.203177 0.0538275 0.453724
0.205504 0.0543582 0.45263
0.196725 0.0525257 0.45666
0.2072 0.0547785 0.451819
0.27821 0.0394394 0.413634
0.172859 -0.0492687 0.466605
0.279628 -0.0390675 0.412741
0.186926 0.0507069 0.460975
0.186812 0.050686 0.461023
0.194282 0.0520798 0.457766
0.287162 -0.0324962 0.40805
0.186737 0.0506727 0.461054
0.278693 0.0390696 0.413353
0.279021 0.0387344 0.41317
0.287858 0.030629 0.407702
0.179651 0.0496268 0.463974
0.287723 -0.0317476 0.407709
0.294385 -0.0225393 0.403546
0.174749 0.048923 0.465924
0.173113 0.0486963 0.466574
0.288174 0.0301726 0.407513
0.294626 0.0209841 0.403452
0.294815 -0.0215211 0.403283
0.298667 -0.0117941 0.400918
0.294999 0.0200567 0.403226
0.298752 0.0103254 0.400896
0.29948 -0.0060549 0.400408
0.300177 -0.000713928 0.399891
0.29953 0.00461778 0.400372
0.0995386 -0.113379 0.476682
0.0999199 -0.113236 0.476636
0.0981531 -0.113461 0.476959
0.0928815 -0.113768 0.477909
0.0914033 -0.113339 0.478286
0.0866728 -0.11204 0.479474
0.105539 -0.111096 0.475963
0.107019 -0.110012 0.475875
0.110935 -0.107123 0.475607
0.0829002 -0.109325 0.480815
0.0816674 -0.108448 0.48125
0.113243 -0.103892 0.475806
0.115523 -0.100683 0.475921
0.0872393 0.111524 0.479489
0.0834925 0.108859 0.480813
0.0919974 0.112801 0.4783
0.0822044 0.107953 0.481266
0.11697 -0.0965279 0.476418
0.0807721 -0.107145 0.481722
0.0934677 0.113219 0.477928
0.098709 0.112883 0.476984
0.100111 0.112792 0.476705
0.117378 -0.0952263 0.476585
0.0775682 -0.102204 0.483335
0.107593 0.109369 0.475887
0.111468 0.10648 0.475629
0.100499 0.112645 0.476659
0.081273 0.106606 0.481755
0.0779833 0.101486 0.483405
0.117461 -0.0932438 0.476966
0.117691 -0.0897389 0.477622
0.106099 0.110477 0.475988
0.113801 0.103175 0.475827
0.0765309 -0.0984265 0.48421
0.116024 0.100012 0.475938
0.0769838 0.0978373 0.48425
0.117181 -0.0873435 0.478207
0.116127 -0.0833206 0.479239
0.117424 0.0959307 0.476431
0.0767528 0.0932914 0.485142
0.0762676 -0.0943423 0.485021
0.117857 0.0945274 0.476612
0.113924 -0.08017 0.480305
0.117936 0.092409 0.477022
0.118134 0.0890342 0.477639
0.117635 0.0867447 0.4782
0.0767889 0.0914366 0.485486
0.076303 -0.0921198 0.485434
0.112311 -0.0778652 0.481011
0.116538 0.0826413 0.479256
0.0768791 -0.0903789 0.485671
0.0784476 -0.0853463 0.48637
0.0772483 0.0900524 0.485674
0.0788878 0.084839 0.486396
0.108378 -0.0749965 0.482336
0.114272 0.0794439 0.480328
0.112694 0.0772111 0.481016
0.0812667 -0.0814546 0.486574
0.0829628 -0.0790982 0.486683
0.107639 -0.0744629 0.482575
0.0816694 0.0809577 0.48659
0.0833576 0.0785917 0.486702
0.10881 0.0744083 0.482323
0.0881355 -0.0752862 0.486368
0.106739 -0.0741803 0.482808
0.101785 -0.0725807 0.484098
0.108001 0.0738274 0.482594
0.0883819 0.0748474 0.486386
0.0884548 -0.07505 0.486344
0.0888266 0.0745151 0.486353
0.0990245 -0.0726103 0.484671
0.107066 0.0735385 0.482842
0.102134 0.0719764 0.484121
0.0886267 -0.0749868 0.486322
0.0993951 0.0720207 0.484687
0.0890644 0.0744261 0.486323
0.0948461 -0.0727385 0.485514
0.0951923 0.0721746 0.485532
POINT_DATA 776
 FIELD attributes 1
edgeIndex 1 776 float
35186 35187 35215 35216 35217 35219 35490 35491 35497 35499 35500 35502 35504 35505 35507 35510 35511 35515 35516 35518 35520 35539 35540 35542 38593 38638 38639 38641 38642 38654 38655 38657 38675 38803 38859 38867 38872 38873 38995 38996 39000 39069 39070 39072 39086 39087 40922 40924 40926 41992 41993 42182 42183 42186 42187 42189 42190 44537 44538 44574 44579 45678 45691 45692 45694 47647 47648 47649 47655 47717 47746 48621 48932 48933 48935 48936 48995 48997 48998 49000 50504 50505 50507 50531 50588 50589 50601 50620 50621 50623 50624 51034 51035 51043 51048 51049 51059 51060 51061 51063 51667 51848 51850 51851 51853 51856 51857 51861 51863 51875 51895 51897 51899 52635 52638 52640 52642 52655 52660 52662 52663 52668 52750 52751 53075 53078 53116 53119 53522 54128 54252 54827 54829 54843 54844 54846 56513 57220 57226 57228 57230 57231 57236 57666 58695 58697 58698 58700 58708 58839 59297 59305 60757 60759 60760 60871 61195 61196 61198 61201 61205 61256 61263 61265 61266 61636 62401 62423 62509 62756 62824 62825 62826 62827 63801 63804 63805 63902 63912 64158 64159 64478 65056 65131 65143 65151 65153 65155 65396 65628 65630 65632 66154 66158 66175 66253 66517 66724 66729 66731 66733 66735 67176 67270 67271 67485 68074 68080 68121 68371 68372 68373 68374 68413 68415 68553 68555 68581 68582 69040 69084 69085 69086 69090 69391 69405 69406 70009 70010 70012 70063 70126 70127 70128 70202 70292 70294 70329 70753 70963 70995 71615 72028 72179 72187 72188 72289 78416 78417 78418 78419 78506 78507 78579 78580 78582 78584 78591 78592 78597 78701 78816 78838 78839 78840 78841 78916 78943 78944 78959 78961 79053 79054 79119 79127 79128 79221 79253 79255 79390 79391 79568 79708 79710 79862 79881 79882 80253 80274 83693 83694 83695 83698 83705 83706 83866 83869 83871 83872 83873 83943 83944 84009 84010 84013 84071 84073 84074 84076 84122 84143 84203 84204 84247 84275 84315 84323 84325 84327 84375 84425 84475 84520 84597 84598 84605 84663 84668 84718 84729 84803 174000 174001 174355 174357 174427 174428 174430 174431 174437 174438 174442 174444 174445 174448 174512 174513 174514 174516 174525 174526 174539 174550 174762 174764 174765 175052 175061 175081 175308 175309 175316 175318 175320 175329 175331 175345 175346 175708 175710 175964 175965 176034 176066 176070 176073 176474 176475 176478 176659 176660 176663 176701 176702 176704 176707 176721 176722 177061 177178 177180 177181 177185 177191 177508 177511 177512 177520 177521 177535 177536 177583 177584 177879 178089 178090 178105 178339 178342 178352 178353 178453 178454 178455 178576 178577 178578 178580 178582 178585 178586 178593 178617 178618 178619 178620 178623 178629 178630 178631 178676 178677 178692 178693 178695 178724 178892 178895 178896 178899 178912 178914 178980 178982 178984 178985 179165 179170 179265 179795 185327 185328 185340 185341 185342 185343 185344 185345 185426 185427 185428 185429 185430 185431 185437 185439 185442 185500 185502 185504 185601 185607 185609 185610 185611 185612 185613 185697 185705 185706 185784 185786 185787 185788 185789 185790 185791 185890 185891 185892 185894 185900 185995 185997 186101 186102 186104 186108 186361 186367 186469 186471 186472 186513 186516 186517 186525 186526 186529 186530 186647 186651 186654 186753 186762 186862 186871 186873 186877 186879 186985 186993 187096 187097 187099 187201 187202 187203 187209 187210 187211 187212 187312 187317 187318 187393 187395 187408 187495 187606 187612 187613 187702 187709 187791 187801 187802 187803 187888 187889 187892 187990 187996 188092 188188 188273 196588 196590 196591 196598 196610 196611 196613 196628 196629 196631 196695 196701 196741 196742 196746 196825 196831 196894 196895 196899 196900 196903 196904 196905 196995 196997 197086 197087 197089 197185 197203 197207 197209 197210 197214 197345 197514 197741 197743 197745 197884 197886 197887 197889 197987 197988 197996 197997 198147 198149 198150 198151 198155 198156 198158 198268 198269 198270 198427 198428 198430 198431 198613 198614 199046 199175 199294 199295 199408 199409 199413 199414 200626 200627 200629 200630 200641 200642 200644 201123 201124 201127 201132 201142 201144 201145 201146 202077 202078 202079 202311 202327 202328 202329 202627 202628 202634 202843 203123 203130 203131 203133 203136 203323 203598 203599 203748 203753 203754 203759 204015 204018 204131 204418 204420 204423 204424 204436 204554 204557 204727 204728 204748 204865 205051 205070 205075 205076 205330 205409 205414 205565 205566 205582 205584 205864 205865 206144 206146 206166 206167 206287 215825 215826 215828 215831 215836 215846 216218 216447 216448 216585 216587 216819 216824 217132 217133 217135 217136 217314 217438 217679 217680 217693 217860 217974 218018 218019 218034 218250 218253 218393 218395 218562 218568 218991 219055 219159 219380 219564 219709 219797 220144 220356 220747 220984 220985 220994 221064 221348 221391 221597 221953 221955 222235 222236 222550 222741 222742 223099 223103 223145 223403 223404 223925 224283 224316 224317 224548 224601 224910 225225 225593 225827 225829 226211 226462 226514 226812 227572
