# vtk DataFile Version 2.0
motorBike_refinementBox
ASCII
DATASET POLYDATA
POINTS 71 float
-0.0326454 -0.0163982 0
-0.0326232 -0.0164062 0
-0.032679 -0.0163847 0
-0.0114578 -0.0233422 0
-0.0115479 -0.0233265 0
-0.0416288 -0.00984277 0
-0.0416426 -0.00983098 0
0.0347017 -0.0238701 0
-0.0459682 4.74598e-05 0
0.0347584 -0.0238634 0
0.0462512 -0.021287 0
0.0461521 -0.0213063 0
0.0571934 -0.0171625 0
0.0572242 -0.0171521 0
-0.0459983 0.000135337 0
0.0572698 -0.0171342 0
-0.0459587 0.000231769 0
0.0668899 -0.0105557 0
0.0669469 -0.010508 0
0.0669827 -0.0104252 0
1.44585 -0.0393121 0
1.44585 -0.0393118 0
1.41175 -0.0377878 0
1.41176 -0.0377912 0
1.43464 -0.0401253 0
1.43461 -0.0401247 0
1.4234 -0.0396692 0
1.42338 -0.0396675 0
1.40051 -0.0343292 0
1.40045 -0.0343091 0
1.39 -0.0289869 0
1.38993 -0.0289494 0
1.3813 -0.0211158 0
1.48532 -0.0202807 0
1.38125 -0.0210669 0
1.48534 -0.0202644 0
1.37686 -0.0102755 0
1.48535 -0.0202468 0
1.37685 -0.0102309 0
1.48921 -0.00985216 0
1.48923 -0.00978494 0
1.37641 0.000844787 0
1.37641 0.000900813 0
1.40877 0.0341873 0
1.44568 0.036702 0
1.4457 0.0367007 0
1.40875 0.0341832 0
1.48967 0.000774993 0
1.48967 0.000855605 0
1.3796 0.0128613 0
1.39713 0.0298232 0
1.39713 0.0298213 0
1.37962 0.0129148 0
1.38686 0.0229473 0
1.38683 0.0229337 0
1.48966 0.00093141 0
1.48671 0.0129653 0
1.38682 0.0229207 0
1.38678 0.0228844 0
1.48674 0.0128923 0
-0.00153458 -0.0247777 0
-0.0291002 -0.0178554 0
-0.0185253 -0.0215914 0
0.0250882 -0.0250015 0
-0.0403344 0.0109957 0
0.0718029 -0.000147035 0
1.47864 -0.026865 0
1.41098 0.0346328 0
1.44289 0.0368702 0
1.45221 0.0354302 0
1.48417 0.0166239 0
POINT_DATA 71
 FIELD attributes 1
edgeIndex 1 71 float
204625 204626 204627 204947 204948 204950 205238 205250 205474 205709 205710 205711 205724 205725 205930 205936 206206 206210 206442 206546 245241 245242 245244 245245 245246 245247 245629 245630 245631 245635 246002 246003 246312 246578 246579 246825 247033 247198 247205 247341 247342 247345 247346 247540 247541 247542 247548 247568 247570 247571 247650 247651 247667 247708 247709 247721 247733 247739 247743 247744 397302 397303 397306 397307 397319 397322 397333 397340 397341 397344 397347
