# vtk DataFile Version 2.0
track0
ASCII
DATASET POLYDATA
POINTS 11000 float
-1.001 -0.05 0.106363
-1.0008 -0.0499996 0.106362
-1.0006 -0.0499992 0.10636
-1.0004 -0.0499988 0.106359
-1.0002 -0.0499984 0.106358
-0.999998 -0.049998 0.106356
-0.987498 -0.0499735 0.106273
-0.974998 -0.0499515 0.106193
-0.962498 -0.0499293 0.106113
-0.949998 -0.0499069 0.106034
-0.937499 -0.0498843 0.105955
-0.924999 -0.0498595 0.105873
-0.912499 -0.0498365 0.105795
-0.899999 -0.0498135 0.105717
-0.887499 -0.0497906 0.10564
-0.874999 -0.0497677 0.105563
-0.862499 -0.0497431 0.105483
-0.849999 -0.0497205 0.105407
-0.837499 -0.0496981 0.10533
-0.824999 -0.049676 0.105255
-0.812499 -0.0496541 0.105179
-0.8 -0.0496311 0.105101
-0.7875 -0.0496098 0.105026
-0.775 -0.0495889 0.104952
-0.7625 -0.0495684 0.104878
-0.75 -0.0495482 0.104804
-0.7375 -0.0495269 0.104728
-0.725 -0.0495075 0.104655
-0.7125 -0.0494885 0.104582
-0.7 -0.0494701 0.10451
-0.6875 -0.0494519 0.104438
-0.675 -0.0494331 0.104364
-0.6625 -0.0494159 0.104293
-0.65 -0.0493993 0.104222
-0.6375 -0.0493831 0.104152
-0.625 -0.0493673 0.104083
-0.6125 -0.0493507 0.104011
-0.6 -0.049336 0.103942
-0.5875 -0.0493219 0.103874
-0.575 -0.0493083 0.103807
-0.5625 -0.0492953 0.103739
-0.55 -0.0492816 0.10367
-0.5375 -0.0492696 0.103604
-0.525 -0.0492583 0.103538
-0.5125 -0.0492476 0.103473
-0.5 -0.0492375 0.103408
-0.4875 -0.0492268 0.103342
-0.475 -0.0492182 0.103278
-0.4625 -0.0492102 0.103215
-0.45 -0.0492029 0.103153
-0.4375 -0.0491962 0.103092
-0.425 -0.0491891 0.103028
-0.4125 -0.0491836 0.102967
-0.4 -0.0491788 0.102907
-0.3875 -0.0491747 0.102848
-0.375 -0.0491714 0.102789
-0.3625 -0.0491678 0.102729
-0.35 -0.0491664 0.102673
-0.3375 -0.049166 0.102617
-0.325 -0.0491664 0.102561
-0.3125 -0.0491675 0.102509
-0.30625 -0.0491683 0.102482
-0.3 -0.0491692 0.102456
-0.29375 -0.04917 0.102429
-0.2875 -0.0491709 0.102403
-0.28125 -0.0491717 0.102376
-0.275 -0.0491725 0.10235
-0.26875 -0.0491732 0.102324
-0.2625 -0.049174 0.102299
-0.25625 -0.0491749 0.102273
-0.25 -0.0491761 0.102248
-0.24375 -0.0491775 0.102222
-0.2375 -0.049179 0.102196
-0.23125 -0.0491808 0.102171
-0.225 -0.0491827 0.102145
-0.21875 -0.0491847 0.10212
-0.2125 -0.0491869 0.102095
-0.20625 -0.0491891 0.10207
-0.2 -0.0491915 0.102045
-0.19375 -0.049194 0.102019
-0.1875 -0.0491965 0.101994
-0.18125 -0.0491993 0.101969
-0.175 -0.0492022 0.101944
-0.16875 -0.0492053 0.101919
-0.1625 -0.0492085 0.101894
-0.15625 -0.0492119 0.101869
-0.153125 -0.0492137 0.101857
-0.15 -0.0492155 0.101846
-0.146875 -0.0492173 0.101834
-0.14375 -0.0492192 0.101822
-0.140625 -0.0492211 0.101811
-0.1375 -0.0492231 0.101799
-0.134375 -0.049225 0.101788
-0.13125 -0.0492269 0.101777
-0.128125 -0.0492289 0.101765
-0.125 -0.049231 0.101754
-0.121875 -0.049233 0.101743
-0.11875 -0.0492351 0.101732
-0.115625 -0.0492373 0.101721
-0.1125 -0.0492394 0.101709
-0.109375 -0.0492416 0.101698
-0.10625 -0.0492438 0.101687
-0.103125 -0.049246 0.101677
-0.1 -0.0492483 0.101666
-0.096875 -0.0492506 0.101655
-0.09375 -0.0492529 0.101644
-0.090625 -0.0492553 0.101634
-0.0875 -0.0492577 0.101623
-0.084375 -0.0492602 0.101613
-0.08125 -0.0492627 0.101602
-0.078125 -0.0492652 0.101592
-0.075 -0.0492676 0.101582
-0.071875 -0.0492702 0.101571
-0.06875 -0.0492728 0.101561
-0.065625 -0.0492753 0.101551
-0.0625 -0.0492779 0.101541
-0.0619947 -0.0492784 0.101539
-0.0614895 -0.0492788 0.101538
-0.0609842 -0.0492792 0.101536
-0.060479 -0.0492796 0.101535
-0.059974 -0.04928 0.101533
-0.0573542 -0.0492822 0.101525
-0.0547344 -0.0492844 0.101516
-0.0521146 -0.0492866 0.101508
-0.0494948 -0.0492888 0.1015
-0.046875 -0.049291 0.101492
-0.04375 -0.0492936 0.101482
-0.040625 -0.0492961 0.101472
-0.0375 -0.0492987 0.101463
-0.034375 -0.0493013 0.101453
-0.03125 -0.0493038 0.101444
-0.025 -0.0493089 0.101425
-0.01875 -0.0493141 0.101407
-0.0125 -0.0493192 0.101389
-0.00624999 -0.0493245 0.101372
1.24921e-12 -0.0493298 0.101354
0.00625 -0.0493352 0.101337
0.0125 -0.0493406 0.10132
0.01875 -0.049346 0.101303
0.025 -0.0493515 0.101287
0.03125 -0.0493571 0.10127
0.0329391 -0.0493586 0.101266
0.0346282 -0.0493601 0.101261
0.0363173 -0.0493616 0.101257
0.0380064 -0.049363 0.101252
0.039699 -0.0493645 0.101248
0.0411342 -0.0493658 0.101244
0.0425694 -0.0493671 0.101241
0.0440046 -0.0493683 0.101237
0.0454398 -0.0493696 0.101233
0.046875 -0.0493709 0.10123
0.05 -0.0493736 0.101222
0.053125 -0.0493763 0.101214
0.05625 -0.0493791 0.101206
0.059375 -0.0493819 0.101198
0.0625 -0.0493848 0.10119
0.065625 -0.0493877 0.101182
0.06875 -0.0493906 0.101174
0.071875 -0.0493935 0.101165
0.075 -0.0493964 0.101157
0.078125 -0.0493994 0.101149
0.08125 -0.0494023 0.101141
0.084375 -0.0494053 0.101133
0.0875 -0.0494082 0.101125
0.090625 -0.0494112 0.101117
0.09375 -0.0494141 0.101109
0.096875 -0.0494171 0.101101
0.1 -0.0494201 0.101093
0.103125 -0.0494231 0.101086
0.10625 -0.0494261 0.101078
0.109375 -0.0494291 0.10107
0.1125 -0.0494321 0.101063
0.115625 -0.0494351 0.101055
0.11875 -0.0494381 0.101047
0.121875 -0.049441 0.10104
0.125 -0.049444 0.101032
0.128125 -0.0494471 0.101025
0.13125 -0.0494501 0.101017
0.134375 -0.0494531 0.10101
0.1375 -0.0494562 0.101003
0.140625 -0.0494592 0.100995
0.14375 -0.0494623 0.100988
0.146875 -0.0494653 0.100981
0.15 -0.0494684 0.100974
0.153125 -0.0494714 0.100966
0.15625 -0.0494745 0.100959
0.159375 -0.0494778 0.100952
0.1625 -0.0494809 0.100945
0.165625 -0.049484 0.100938
0.16875 -0.0494872 0.100931
0.171875 -0.0494903 0.100925
0.175 -0.0494935 0.100918
0.178125 -0.0494966 0.100911
0.18125 -0.0494997 0.100904
0.184375 -0.0495028 0.100897
0.1875 -0.0495059 0.100891
0.19375 -0.0495124 0.100877
0.2 -0.0495189 0.100864
0.20625 -0.0495254 0.100851
0.2125 -0.049532 0.100838
0.21875 -0.0495386 0.100825
0.225 -0.0495456 0.100813
0.23125 -0.0495525 0.100801
0.2375 -0.0495598 0.100789
0.24375 -0.0495677 0.100778
0.25 -0.0495761 0.100767
0.25625 -0.0495852 0.100757
0.2625 -0.0495941 0.100746
0.26875 -0.0496031 0.100736
0.275 -0.0496121 0.100726
0.28125 -0.0496212 0.100717
0.2875 -0.0496311 0.100707
0.29375 -0.0496405 0.100698
0.3 -0.0496499 0.100689
0.30625 -0.0496595 0.100681
0.3125 -0.0496691 0.100672
0.31875 -0.0496796 0.100664
0.325 -0.0496894 0.100656
0.33125 -0.0496992 0.100648
0.3375 -0.049709 0.100641
0.34375 -0.0497191 0.100633
0.35 -0.0497301 0.100626
0.35625 -0.0497404 0.100619
0.3625 -0.0497505 0.100612
0.36875 -0.0497606 0.100606
0.375 -0.0497713 0.100599
0.38125 -0.049783 0.100593
0.3875 -0.049794 0.100587
0.39375 -0.0498047 0.100581
0.4 -0.0498155 0.100576
0.40625 -0.0498268 0.100571
0.4125 -0.0498391 0.100565
0.41875 -0.0498508 0.10056
0.425 -0.0498622 0.100556
0.43125 -0.0498738 0.100551
0.4375 -0.049886 0.100547
0.44375 -0.0498991 0.100542
0.45 -0.0499114 0.100538
0.45625 -0.0499233 0.100535
0.4625 -0.0499352 0.100533
0.46875 -0.0499478 0.10053
0.475 -0.0499612 0.100526
0.48125 -0.049974 0.100522
0.4875 -0.0499864 0.10052
0.49375 -0.0499989 0.100517
0.5 -0.0500121 0.100515
0.50625 -0.0500261 0.100511
0.5125 -0.0500395 0.10051
0.51875 -0.0500522 0.100509
0.525 -0.0500649 0.100508
0.53125 -0.0500782 0.100506
0.5375 -0.0500923 0.100504
0.54375 -0.0501057 0.100502
0.55 -0.0501186 0.100501
0.55625 -0.0501316 0.100501
0.5625 -0.0501453 0.100499
0.56875 -0.05016 0.100498
0.575 -0.0501739 0.100497
0.58125 -0.0501871 0.100498
0.5875 -0.0502004 0.100499
0.59375 -0.0502142 0.100499
0.6 -0.0502288 0.100498
0.60625 -0.0502426 0.100498
0.6125 -0.0502557 0.100499
0.61875 -0.0502689 0.1005
0.625 -0.050283 0.100501
0.63125 -0.050298 0.100501
0.6375 -0.0503123 0.100502
0.64375 -0.0503259 0.100504
0.65 -0.0503395 0.100507
0.65625 -0.0503536 0.100509
0.6625 -0.0503684 0.100509
0.66875 -0.0503826 0.100511
0.675 -0.0503964 0.100513
0.68125 -0.0504101 0.100516
0.6875 -0.0504246 0.100518
0.69375 -0.0504398 0.100519
0.7 -0.0504541 0.100522
0.70625 -0.0504677 0.100525
0.7125 -0.0504812 0.100529
0.71875 -0.0504954 0.100532
0.725 -0.0505104 0.100534
0.73125 -0.0505247 0.100537
0.7375 -0.0505386 0.100541
0.74375 -0.0505525 0.100544
0.75 -0.0505672 0.100548
0.75625 -0.050583 0.10055
0.7625 -0.0505979 0.100554
0.76875 -0.0506121 0.100559
0.775 -0.0506263 0.100564
0.78125 -0.0506411 0.100568
0.7875 -0.0506565 0.100572
0.79375 -0.0506715 0.100576
0.8 -0.0506861 0.100581
0.80625 -0.0507007 0.100585
0.8125 -0.050716 0.10059
0.81875 -0.0507322 0.100594
0.825 -0.0507475 0.100599
0.83125 -0.050762 0.100605
0.8375 -0.0507765 0.100611
0.84375 -0.0507914 0.100617
0.85 -0.0508068 0.100621
0.85625 -0.0508216 0.100626
0.8625 -0.050836 0.100632
0.86875 -0.0508504 0.100638
0.875 -0.0508654 0.100643
0.88125 -0.0508815 0.100648
0.8875 -0.0508967 0.100653
0.89375 -0.0509112 0.100661
0.9 -0.0509256 0.100668
0.90625 -0.0509404 0.100674
0.9125 -0.0509557 0.100679
0.91875 -0.0509704 0.100685
0.925 -0.0509847 0.100692
0.93125 -0.0509989 0.100699
0.9375 -0.0510138 0.100705
0.94375 -0.0510297 0.10071
0.95 -0.0510448 0.100717
0.95625 -0.0510592 0.100725
0.9625 -0.0510736 0.100734
0.96875 -0.0510882 0.100741
0.975 -0.0511031 0.100747
0.98125 -0.0511176 0.100754
0.9875 -0.0511319 0.100762
0.99375 -0.0511461 0.10077
1 -0.0511609 0.100777
1.00625 -0.0511766 0.100783
1.0125 -0.0511913 0.100791
1.01875 -0.0512054 0.1008
1.025 -0.0512194 0.100809
1.03125 -0.0512335 0.100817
1.0375 -0.0512479 0.100824
1.04375 -0.0512619 0.100832
1.05 -0.0512755 0.10084
1.05625 -0.0512892 0.100849
1.0625 -0.0513032 0.100857
1.06875 -0.0513182 0.100864
1.075 -0.0513322 0.100873
1.08125 -0.0513458 0.100883
1.0875 -0.0513594 0.100893
1.09375 -0.0513731 0.100902
1.1 -0.0513872 0.10091
1.10625 -0.0514009 0.100918
1.1125 -0.0514143 0.100927
1.11875 -0.0514276 0.100936
1.125 -0.051441 0.100945
1.13125 -0.0514551 0.100953
1.1375 -0.0514682 0.100962
1.14375 -0.0514814 0.100971
1.15 -0.0514948 0.100981
1.15625 -0.0515082 0.10099
1.1625 -0.0515222 0.100998
1.16875 -0.0515362 0.101007
1.175 -0.0515502 0.101015
1.18125 -0.0515642 0.101024
1.1875 -0.0515782 0.101032
1.19375 -0.0515924 0.10104
1.2 -0.0516063 0.101049
1.20625 -0.0516202 0.101058
[...]
POINT_DATA 11000
 FIELD attributes 2
p 1 11000 float
-9.43969 -9.44448 -9.44927 -9.45406 -9.45884 -9.46363 -9.71085 -9.92948 -10.1253 -10.3198 -10.525 -10.8029 -11.0553 -11.3073 -11.5534 -11.7638 -12.0086 -12.2431 -12.4791 -12.7146 -12.9336 -13.1638 -13.3893 -13.6147 -13.8411 -14.0594 -14.2845 -14.5058 -14.7256 -14.9452 -15.1594 -15.3776 -15.5905 -15.8031 -16.0164 -16.2216 -16.4299 -16.6342 -16.8373 -17.04 -17.2377 -17.4347 -17.6276 -17.8203 -18.0135 -18.1999 -18.3848 -18.5679 -18.7499 -18.9316 -19.11 -19.2838 -19.4546 -19.6253 -19.7957 -19.9595 -20.1144 -20.2728 -20.4313 -20.584 -20.7619 -20.8237 -20.8869 -20.9496 -21.0088 -21.0737 -21.1497 -21.2229 -21.3057 -21.39 -21.4733 -21.547 -21.6209 -21.6943 -21.765 -21.8364 -21.9093 -21.9829 -22.0656 -22.1497 -22.2286 -22.2992 -22.3714 -22.4504 -22.5329 -22.6177 -22.6555 -22.6926 -22.7296 -22.7666 -22.8018 -22.8438 -22.8828 -22.9218 -22.9608 -22.9979 -23.0386 -23.0781 -23.1175 -23.157 -23.1928 -23.2348 -23.2746 -23.3145 -23.3543 -23.393 -23.4341 -23.4739 -23.5137 -23.5535 -23.5914 -23.6307 -23.6695 -23.7083 -23.7471 -23.7856 -23.7921 -23.7981 -23.8041 -23.8102 -23.8162 -23.848 -23.8798 -23.9116 -23.9434 -23.972 -24.0074 -24.039 -24.0706 -24.1021 -24.1316 -24.1976 -24.2619 -24.3236 -24.3811 -24.4376 -24.4957 -24.5533 -24.6092 -24.6612 -24.713 -24.7267 -24.74 -24.7534 -24.7668 -24.7802 -24.7919 -24.8035 -24.8152 -24.8268 -24.8372 -24.8664 -24.8943 -24.9222 -24.9502 -24.977 -25.0024 -25.0265 -25.0507 -25.0748 -25.096 -25.1234 -25.1468 -25.1702 -25.1936 -25.2142 -25.2382 -25.2602 -25.2822 -25.3042 -25.3223 -25.347 -25.368 -25.3891 -25.4101 -25.4291 -25.4512 -25.4718 -25.4923 -25.5129 -25.5293 -25.5533 -25.5733 -25.5934 -25.6134 -25.6315 -25.6511 -25.6698 -25.6885 -25.7072 -25.7217 -25.7405 -25.7583 -25.7761 -25.7939 -25.8105 -25.8515 -25.8931 -25.9256 -25.9514 -25.9809 -26.0097 -26.041 -26.0724 -26.1039 -26.1362 -26.1617 -26.1879 -26.2143 -26.2432 -26.2766 -26.2967 -26.321 -26.3462 -26.3716 -26.3984 -26.4184 -26.4396 -26.4609 -26.4856 -26.5152 -26.5312 -26.5483 -26.566 -26.5827 -26.5982 -26.6099 -26.6222 -26.6352 -26.6534 -26.6744 -26.6815 -26.6896 -26.6995 -26.7084 -26.7168 -26.7203 -26.7243 -26.7296 -26.7405 -26.753 -26.7515 -26.7504 -26.7514 -26.7509 -26.75 -26.7452 -26.7407 -26.7369 -26.738 -26.7408 -26.7312 -26.7218 -26.7137 -26.7037 -26.6932 -26.6812 -26.6694 -26.6585 -26.6526 -26.6482 -26.633 -26.6182 -26.6049 -26.5898 -26.5744 -26.5565 -26.5391 -26.5236 -26.5135 -26.5048 -26.4847 -26.4652 -26.4476 -26.429 -26.4102 -26.3867 -26.3641 -26.3449 -26.3318 -26.3202 -26.2955 -26.2718 -26.2512 -26.2315 -26.212 -26.1855 -26.1597 -26.1373 -26.1206 -26.1054 -26.0773 -26.0501 -26.026 -26.0026 -25.9794 -25.9495 -25.9204 -25.8945 -25.8744 -25.8558 -25.8234 -25.7922 -25.7643 -25.7379 -25.7119 -25.6784 -25.6458 -25.6163 -25.5928 -25.571 -25.5355 -25.5013 -25.4707 -25.4422 -25.4144 -25.379 -25.3446 -25.3129 -25.286 -25.261 -25.2242 -25.1888 -25.1563 -25.1252 -25.0948 -25.0594 -25.0246 -24.9905 -24.9584 -24.9281 -24.8885 -24.8505 -24.8141 -24.7783 -24.7432 -24.7036 -24.6648 -24.6266 -24.5904 -24.5566 -24.515 -24.4734 -24.4319 -24.3902 -24.3481 -24.3004 -24.2558 -24.2112 -24.1663 -24.1273 -24.0818 -24.0347 -23.9884 -23.942 -23.8948 -23.845 -23.7958 -23.7467 -23.698 -23.6509 -23.6014 -23.5518 -23.5016 -23.4515 -23.4011 -23.3488 -23.2941 -23.2393 -23.1837 -23.1262 -23.0698 -23.0127 -22.9489 -22.8802 -22.811 -22.7421 -22.6753 -22.61 -22.5367 -22.464 -22.3942 -22.3255 -22.2515 -22.181 -22.1134 -22.0434 -21.9758 -21.9059 -21.8331 -21.7619 -21.6919 -21.6243 -21.5547 -21.4818 -21.4107 -21.342 -21.275 -21.2037 -21.1344 -21.0682 -20.9996 -20.9341 -20.8704 -20.8019 -20.7345 -20.6691 -20.6053 -20.5397 -20.4708 -20.4048 -20.339 -20.2755 -20.2086 -20.1382 -20.0682 -19.9988 -19.9318 -19.8678 -19.7982 -19.7281 -19.6571 -19.5871 -19.5168 -19.4464 -19.3772 -19.3055 -19.2347 -19.1639 -19.0944 -19.0272 -18.9699 -18.9118 -18.8462 -18.7805 -18.7189 -18.5535 -18.4108 -18.2764 -18.1523 -18.0219 -17.8774 -17.7244 -17.5901 -17.4558 -17.3234 -17.1866 -17.0838 -16.9809 -16.8673 -16.7704 -16.4373 -16.1097 -15.842 -15.5816 -15.3218 -15.052 -14.7822 -14.5214 -14.2631 -14.0048 -13.7535 -13.5023 -13.2807 -13.0829 -12.8852 -12.2614 -11.7688 -11.2851 -10.8016 -10.2978 -9.82437 -9.37135 -8.91927 -8.4672 -8.0119 -7.61063 -7.21134 -6.81206 -6.4162 -6.08066 -5.49673 -4.99411 -4.49151 -3.98892 -3.4834 -3.33715 -3.19089 -3.05458 -2.9323 -2.82917 -2.32791 -1.88932 -1.45733 -1.02538 -0.688033 -0.178604 0.248036 0.672307 1.09649 1.432 1.61133 1.7132 1.80584 1.88357 1.88476 1.88025 1.81857 1.7569 1.68014 1.55181 1.49505 1.39828 1.3015 1.20003 1.06332 1.00691 0.921158 0.835402 0.747892 0.635081 0.590999 0.523485 0.455971 0.387359 0.297541 0.268885 0.221148 0.173412 0.124987 0.0591973 0.050484 0.0257138 0.000943469 -0.0240115 -0.0638496 -0.0526229 -0.0564912 -0.0603596 -0.0639096 -0.081768 -0.0578969 -0.0492947 -0.0406926 -0.031456 -0.0367188 -0.0162252 -0.0111559 -0.00609017 0.00390787 0.00217864
-9.42853 -9.43321 -9.4379 -9.44258 -9.44726 -9.45194 -9.69121 -9.90987 -10.1285 -10.342 -10.5609 -10.8482 -11.1002 -11.3471 -11.5935 -11.8082 -12.0658 -12.3007 -12.5352 -12.7714 -12.9903 -13.2272 -13.4551 -13.6819 -13.9084 -14.1285 -14.3553 -14.5768 -14.7981 -15.0194 -15.237 -15.4556 -15.6696 -15.8833 -16.0968 -16.3078 -16.5142 -16.7185 -16.9227 -17.1267 -17.3296 -17.525 -17.7186 -17.9123 -18.1059 -18.299 -18.4813 -18.6644 -18.8474 -19.0304 -19.2145 -19.3867 -19.5574 -19.7284 -19.8994 -20.0687 -20.2212 -20.3686 -20.5157 -20.667 -20.8494 -20.8749 -20.9004 -20.968 -21.0755 -21.1831 -21.2406 -21.2981 -21.3753 -21.4703 -21.5653 -21.6301 -21.695 -21.7761 -21.8793 -21.9824 -22.0202 -22.0501 -22.08 -22.1098 -22.1402 -22.186 -22.2241 -22.2622 -22.3003 -22.335 -22.378 -22.419 -22.46 -22.501 -22.5379 -22.5843 -22.6283 -22.6723 -22.7163 -22.7584 -22.8044 -22.848 -22.8917 -22.9354 -22.9741 -23.0192 -23.0614 -23.1036 -23.1458 -23.1846 -23.2283 -23.268 -23.3077 -23.3473 -23.3766 -23.4141 -23.4435 -23.4729 -23.5024 -23.5387 -23.6373 -23.7359 -23.8115 -23.8873 -23.9606 -24.0351 -24.1063 -24.1701 -24.2307 -24.2906 -24.352 -24.414 -24.4692 -24.5224 -24.5735 -24.6243 -24.6742 -24.7244 -24.7766 -24.8311 -24.8756 -24.9205 -24.97 -25.0188 -25.0708 -25.1189 -25.1689 -25.2192 -25.2729 -25.3266 -25.3719 -25.4175 -25.4674 -25.5289 -25.5904 -25.6092 -25.6265 -25.6438 -25.6611 -25.6781 -25.7011 -25.7226 -25.7441 -25.7656 -25.7893 -25.811 -25.8325 -25.854 -25.8755 -25.8963 -25.9179 -25.9381 -25.9582 -25.9784 -25.9993 -26.0185 -26.0372 -26.0558 -26.0745 -26.092 -26.1108 -26.1281 -26.1455 -26.1628 -26.1806 -26.1961 -26.2122 -26.2284 -26.2446 -26.2595 -26.2723 -26.2838 -26.2954 -26.3069 -26.3207 -26.3513 -26.3822 -26.4102 -26.4402 -26.4702 -26.4909 -26.5116 -26.536 -26.559 -26.582 -26.5986 -26.6159 -26.6354 -26.6573 -26.6805 -26.6922 -26.7064 -26.7229 -26.7387 -26.7533 -26.7647 -26.7771 -26.7893 -26.8024 -26.8175 -26.8267 -26.8368 -26.8473 -26.8584 -26.8687 -26.8805 -26.8882 -26.8974 -26.9049 -26.9139 -26.9155 -26.9193 -26.9225 -26.9241 -26.9306 -26.9284 -26.9276 -26.9261 -26.9242 -26.9211 -26.9172 -26.916 -26.9144 -26.9118 -26.9149 -26.9086 -26.9036 -26.8981 -26.8924 -26.8858 -26.8768 -26.8719 -26.8667 -26.8604 -26.861 -26.8516 -26.8451 -26.8383 -26.8314 -26.8255 -26.8157 -26.8102 -26.8045 -26.7982 -26.7984 -26.788 -26.7814 -26.7742 -26.7669 -26.7614 -26.7504 -26.7447 -26.739 -26.7331 -26.7341 -26.7234 -26.717 -26.7098 -26.7024 -26.6973 -26.6856 -26.6793 -26.6731 -26.6668 -26.6674 -26.6553 -26.6482 -26.6402 -26.6321 -26.6268 -26.6141 -26.6072 -26.6005 -26.5936 -26.5934 -26.5807 -26.5726 -26.5637 -26.5546 -26.5485 -26.5353 -26.5276 -26.5198 -26.5112 -26.5088 -26.4951 -26.4874 -26.4782 -26.4685 -26.463 -26.4372 -26.4153 -26.3911 -26.3702 -26.3489 -26.3245 -26.3012 -26.2784 -26.2557 -26.2349 -26.2061 -26.1811 -26.1566 -26.1323 -26.1097 -26.0806 -26.0601 -26.0293 -26.0035 -25.9805 -25.947 -25.9237 -25.896 -25.863 -25.8429 -25.8027 -25.7761 -25.741 -25.712 -25.6859 -25.6501 -25.6226 -25.5921 -25.5581 -25.538 -25.4971 -25.464 -25.431 -25.399 -25.3703 -25.3325 -25.298 -25.2644 -25.2313 -25.1991 -25.1627 -25.1272 -25.092 -25.0579 -25.0257 -24.9831 -24.9438 -24.9068 -24.8712 -24.8374 -24.7971 -24.757 -24.7151 -24.6699 -24.6172 -24.5986 -24.5805 -24.564 -24.5473 -24.5288 -24.5028 -24.4844 -24.4671 -24.4497 -24.4355 -24.3791 -24.3242 -24.2783 -24.2336 -24.1896 -24.1401 -24.0907 -24.0435 -23.9969 -23.9504 -23.8951 -23.84 -23.7895 -23.7425 -23.6958 -23.6403 -23.5856 -23.5323 -23.4828 -23.4341 -23.3761 -23.3195 -23.2674 -23.2168 -23.1648 -23.1027 -23.0388 -22.9768 -22.9196 -22.8631 -22.7952 -22.7278 -22.6653 -22.6107 -22.5566 -22.4793 -22.402 -22.3303 -22.2647 -22.1992 -22.1271 -22.0553 -21.9862 -21.9175 -21.849 -21.7775 -21.7061 -21.6368 -21.5696 -21.5024 -21.4313 -21.3605 -21.292 -21.2263 -21.1607 -21.0903 -21.0202 -20.9524 -20.886 -20.8198 -20.7516 -20.6834 -20.6134 -20.5424 -20.4729 -20.4057 -20.3405 -20.2755 -20.2103 -20.1454 -20.0752 -20.0055 -19.938 -19.8738 -19.8078 -19.7365 -19.6636 -19.5972 -19.5301 -19.4627 -19.3901 -19.318 -19.242 -19.172 -19.1028 -19.0238 -18.9454 -18.8718 -18.8039 -18.7365 -18.6587 -18.5813 -18.5104 -18.4494 -18.3891 -18.3132 -18.2377 -18.1675 -18.1171 -18.0681 -17.8972 -17.7584 -17.6197 -17.4809 -17.3445 -17.2031 -17.086 -16.9689 -16.8518 -16.7489 -16.4264 -16.1151 -15.8499 -15.586 -15.3219 -15.2949 -15.2684 -15.2419 -15.2154 -15.1889 -14.9551 -14.7212 -14.4854 -14.2439 -14.0044 -13.7947 -13.5954 -13.3818 -13.1677 -12.9585 -12.3348 -11.8176 -11.2722 -10.7673 -10.2637 -9.78969 -9.3267 -8.87479 -8.4227 -7.96649 -7.56445 -7.16493 -6.76552 -6.40847 -6.08856 -5.30429 -4.6595 -4.01471 -3.37487 -2.72991 -2.29301 -1.8703 -1.44764 -1.02502 -0.624098 -0.540827 -0.469337 -0.397855 -0.326378 -0.255937 0.170388 0.518607 0.866765 1.21486 1.4767 1.654 1.74281 1.8206 1.89835 1.90112 1.89544 1.83377 1.75787 1.68052 1.55304 1.49563 1.39887 1.2982 1.1956 1.05938 1.00257 0.916829 0.829723 0.741624 0.629151 0.584772 0.517271 0.448947 0.379913 0.290387 0.261485 0.213761 0.165536 0.116822 0.051295 0.0423576 0.0175992 -0.00728995 -0.0323218 -0.0719049 -0.0609173 -0.0647754 -0.0684146 -0.0717916 -0.0893697 -0.0657785 -0.0571689 -0.0481361 -0.0385411 -0.0434795 -0.0233145 -0.0182414 -0.00997905 0.00298889 0.0016121
-9.40113 -9.40577 -9.41041 -9.41505 -9.4197 -9.42434 -9.61013 -9.81089 -10.0116 -10.2123 -10.4598 -10.7239 -10.9901 -11.2563 -11.5224 -11.7867 -12.0349 -12.2833 -12.5318 -12.7804 -13.0275 -13.2632 -13.4968 -13.7305 -13.9639 -14.195 -14.4199 -14.6455 -14.8713 -15.097 -15.3234 -15.5418 -15.7594 -15.9771 -16.1946 -16.4102 -16.6165 -16.8239 -17.0315 -17.239 -17.4468 -17.6437 -17.8403 -18.0369 -18.2333 -18.4279 -18.6117 -18.7977 -18.9838 -19.17 -19.3562 -19.53 -19.7036 -19.8773 -20.0507 -20.2207 -20.3939 -20.5685 -20.7322 -20.8959 -21.0655 -21.1317 -21.1983 -21.2759 -21.3554 -21.4314 -21.5107 -21.5851 -21.6596 -21.7369 -21.8287 -21.855 -21.8877 -21.9188 -21.9456 -21.981 -22.0148 -22.051 -22.0881 -22.1254 -22.1664 -22.2052 -22.2435 -22.2823 -22.3234 -22.3636 -22.4119 -22.4574 -22.5016 -22.5457 -22.5888 -22.6359 -22.6809 -22.7258 -22.77 -22.8074 -22.8525 -22.8844 -22.9241 -22.9643 -22.996 -23.0965 -23.1764 -23.2577 -23.3462 -23.4511 -23.4891 -23.5344 -23.5796 -23.6108 -23.6479 -23.6883 -23.7264 -23.7648 -23.8031 -23.839 -23.8801 -23.9151 -23.9508 -23.9878 -24.0197 -24.062 -24.0974 -24.132 -24.1662 -24.1953 -24.2357 -24.2738 -24.3099 -24.3429 -24.3721 -24.4043 -24.4335 -24.4616 -24.489 -24.5116 -24.5447 -24.573 -24.6007 -24.6273 -24.6562 -24.6811 -24.7066 -24.7313 -24.7557 -24.776 -24.8027 -24.8289 -24.8545 -24.8792 -24.907 -24.9278 -24.9521 -24.9752 -24.9978 -25.02 -25.0434 -25.0685 -25.0934 -25.1176 -25.1466 -25.1643 -25.1829 -25.2029 -25.2233 -25.2429 -25.3002 -25.3504 -25.403 -25.4556 -25.5217 -25.5612 -25.617 -25.6684 -25.716 -25.7762 -25.8196 -25.8751 -25.9163 -25.967 -26.0178 -26.0615 -26.0986 -26.1432 -26.1919 -26.2446 -26.2639 -26.2848 -26.3057 -26.3249 -26.3415 -26.3687 -26.3884 -26.408 -26.4276 -26.4428 -26.4658 -26.4826 -26.4994 -26.5164 -26.5255 -26.549 -26.5644 -26.5801 -26.5957 -26.6043 -26.6229 -26.641 -26.6592 -26.6758 -26.686 -26.6961 -26.7034 -26.7104 -26.7175 -26.7245 -26.7247 -26.725 -26.7252 -26.7255 -26.7261 -26.7511 -26.776 -26.8008 -26.8257 -26.8506 -26.8583 -26.8657 -26.873 -26.8803 -26.8879 -26.8965 -26.902 -26.9075 -26.9131 -26.9155 -26.9223 -26.9282 -26.9342 -26.9401 -26.941 -26.9474 -26.9515 -26.9557 -26.9598 -26.9657 -26.9732 -26.9814 -26.9901 -26.9987 -27.0099 -27.0202 -27.03 -27.04 -27.0518 -27.0649 -27.0738 -27.0841 -27.0979 -27.1087 -27.1104 -27.1264 -27.1373 -27.1434 -27.1428 -27.1463 -27.1517 -27.1485 -27.1453 -27.1431 -27.1342 -27.1332 -27.1271 -27.1205 -27.1138 -27.1025 -27.0971 -27.0899 -27.0826 -27.0753 -27.0666 -27.0604 -27.0534 -27.0469 -27.0404 -27.0331 -27.0264 -27.02 -27.0136 -27.0066 -27.0004 -26.9927 -26.9859 -26.9796 -26.9734 -26.9684 -26.9604 -26.9547 -26.949 -26.9431 -26.9397 -26.9325 -26.9267 -26.921 -26.9153 -26.9117 -26.9029 -26.8964 -26.89 -26.8837 -26.8791 -26.87 -26.8635 -26.8568 -26.8501 -26.8463 -26.8357 -26.8288 -26.822 -26.8151 -26.8101 -26.8009 -26.7935 -26.7862 -26.7789 -26.7732 -26.7616 -26.7529 -26.7443 -26.7353 -26.7276 -26.7118 -26.7039 -26.696 -26.6882 -26.6862 -26.6609 -26.648 -26.6268 -26.6029 -26.5921 -26.5605 -26.5409 -26.5169 -26.4846 -26.4551 -26.4436 -26.4289 -26.4143 -26.4036 -26.3881 -26.3737 -26.3626 -26.3491 -26.3355 -26.3279 -26.2922 -26.266 -26.2353 -26.2039 -26.1818 -26.1437 -26.1094 -26.0675 -26.0341 -26.0018 -25.9693 -25.9372 -25.9045 -25.8718 -25.8399 -25.8067 -25.7738 -25.7409 -25.7078 -25.6768 -25.6432 -25.6103 -25.5772 -25.5442 -25.5111 -25.477 -25.4425 -25.408 -25.374 -25.3408 -25.3045 -25.2693 -25.2332 -25.1972 -25.1612 -25.1226 -25.0835 -25.0445 -25.0064 -24.9673 -24.927 -24.8872 -24.8464 -24.8024 -24.7584 -24.7169 -24.674 -24.6298 -24.583 -24.5366 -24.4863 -24.4377 -24.3887 -24.3398 -24.2915 -24.279 -24.2669 -24.2548 -24.2428 -24.2307 -24.1942 -24.1576 -24.1206 -24.0835 -24.0465 -23.9942 -23.9431 -23.8913 -23.8394 -23.7881 -23.7348 -23.6854 -23.6334 -23.5767 -23.5237 -23.4661 -23.4133 -23.3562 -23.2971 -23.2433 -23.1846 -23.1258 -23.0666 -23.0054 -22.9482 -22.8813 -22.8178 -22.7546 -22.6914 -22.6243 -22.5633 -22.4971 -22.4306 -22.3616 -22.2909 -22.229 -22.1648 -22.0987 -22.0304 -21.9661 -21.8986 -21.8346 -21.7651 -21.6943 -21.6273 -21.558 -21.4931 -21.4205 -21.3505 -21.2886 -21.211 -21.1404 -21.0698 -21.0002 -20.9295 -20.8605 -20.7916 -20.7214 -20.6511 -20.5808 -20.5098 -20.4391 -20.3686 -20.3001 -20.2318 -20.1616 -20.0923 -20.0212 -19.9522 -19.8763 -19.8104 -19.7408 -19.6703 -19.5964 -19.5232 -19.4536 -19.3861 -19.3145 -19.243 -19.1789 -19.0991 -19.027 -18.9548 -18.8825 -18.8132 -18.7446 -18.6793 -18.6132 -18.5466 -18.48 -18.4732 -18.4664 -18.4596 -18.4528 -18.4465 -18.3751 -18.3042 -18.234 -18.1746 -18.116 -17.9746 -17.834 -17.6934 -17.5455 -17.3992 -17.2842 -17.1758 -17.0675 -16.959 -16.8463 -16.5013 -16.1567 -15.8814 -15.6143 -15.3472 -15.0623 -14.7783 -14.5188 -14.2642 -14.0107 -13.7533 -13.5079 -13.2965 -13.0949 -12.8963 -12.2841 -11.7431 -11.2382 -10.7333 -10.2296 -9.75558 -9.29182 -8.82925 -8.37721 -7.92096 -7.51888 -7.11936 -6.76549 -6.42636 -6.10646 -5.32491 -4.68015 -4.03539 -3.31987 -2.61717 -2.17563 -1.75077 -1.32595 -0.90119 -0.535652 -0.12198 0.230097 0.582019 0.933787 1.26106 1.33006 1.39921 1.46836 1.50912 1.52157 1.68035 1.7582 1.83601 1.91377 1.91745 1.91111 1.83583 1.75851 1.68117 1.55412 1.4964 1.39645 1.29387 1.19128 1.05528 0.998308 0.911573 0.823491 0.735405 0.623075 0.578585 0.510529 0.44151 0.372488 0.283094 0.254095 0.206056 0.157356 0.108655 0.0432598 0.0342214 0.00939454 -0.0156243 -0.0406454 -0.0800858 -0.0692223 -0.0729438 -0.0763106 -0.0796794 -0.0970863 -0.0736593 -0.0648165 -0.0552149 -0.0456154 -0.0503407 -0.0303882 -0.0237569 -0.0107908 0.00217415 0.00103482