# vtk DataFile Version 2.0
track0
ASCII
DATASET POLYDATA
POINTS 11000 float
-1.001 -0.05 0.106363
-1.0008 -0.0499996 0.106362
-1.0006 -0.0499992 0.10636
-1.0004 -0.0499988 0.106359
-1.0002 -0.0499984 0.106358
-0.999998 -0.049998 0.106356
-0.987498 -0.0499735 0.106273
-0.974998 -0.0499515 0.106193
-0.962498 -0.0499293 0.106113
-0.949998 -0.0499069 0.106034
-0.937499 -0.0498843 0.105955
-0.924999 -0.0498595 0.105873
-0.912499 -0.0498365 0.105795
-0.899999 -0.0498135 0.105717
-0.887499 -0.0497906 0.10564
-0.874999 -0.0497677 0.105563
-0.862499 -0.0497431 0.105483
-0.849999 -0.0497205 0.105407
-0.837499 -0.0496981 0.10533
-0.824999 -0.049676 0.105255
-0.812499 -0.0496541 0.105179
-0.8 -0.0496311 0.105101
-0.7875 -0.0496098 0.105026
-0.775 -0.0495889 0.104952
-0.7625 -0.0495684 0.104878
-0.75 -0.0495482 0.104804
-0.7375 -0.0495269 0.104728
-0.725 -0.0495075 0.104655
-0.7125 -0.0494885 0.104582
-0.7 -0.0494701 0.10451
-0.6875 -0.0494519 0.104438
-0.675 -0.0494331 0.104364
-0.6625 -0.0494159 0.104293
-0.65 -0.0493993 0.104222
-0.6375 -0.0493831 0.104152
-0.625 -0.0493673 0.104083
-0.6125 -0.0493507 0.104011
-0.6 -0.049336 0.103942
-0.5875 -0.0493219 0.103874
-0.575 -0.0493083 0.103807
-0.5625 -0.0492953 0.103739
-0.55 -0.0492816 0.10367
-0.5375 -0.0492696 0.103604
-0.525 -0.0492583 0.103538
-0.5125 -0.0492476 0.103473
-0.5 -0.0492375 0.103408
-0.4875 -0.0492268 0.103342
-0.475 -0.0492182 0.103278
-0.4625 -0.0492102 0.103215
-0.45 -0.0492029 0.103153
-0.4375 -0.0491962 0.103092
-0.425 -0.0491891 0.103028
-0.4125 -0.0491836 0.102967
-0.4 -0.0491788 0.102907
-0.3875 -0.0491747 0.102848
-0.375 -0.0491714 0.102789
-0.3625 -0.0491678 0.102729
-0.35 -0.0491664 0.102673
-0.3375 -0.049166 0.102617
-0.325 -0.0491664 0.102561
-0.3125 -0.0491675 0.102509
-0.30625 -0.0491683 0.102482
-0.3 -0.0491692 0.102456
-0.29375 -0.04917 0.102429
-0.2875 -0.0491709 0.102403
-0.28125 -0.0491717 0.102376
-0.275 -0.0491725 0.10235
-0.26875 -0.0491732 0.102324
-0.2625 -0.049174 0.102299
-0.25625 -0.0491749 0.102273
-0.25 -0.0491761 0.102248
-0.24375 -0.0491775 0.102222
-0.2375 -0.049179 0.102196
-0.23125 -0.0491808 0.102171
-0.225 -0.0491827 0.102145
-0.21875 -0.0491847 0.10212
-0.2125 -0.0491869 0.102095
-0.20625 -0.0491891 0.10207
-0.2 -0.0491915 0.102045
-0.19375 -0.049194 0.102019
-0.1875 -0.0491965 0.101994
-0.18125 -0.0491993 0.101969
-0.175 -0.0492022 0.101944
-0.16875 -0.0492053 0.101919
-0.1625 -0.0492085 0.101894
-0.15625 -0.0492119 0.101869
-0.153125 -0.0492137 0.101857
-0.15 -0.0492155 0.101846
-0.146875 -0.0492173 0.101834
-0.14375 -0.0492192 0.101822
-0.140625 -0.0492211 0.101811
-0.1375 -0.0492231 0.101799
-0.134375 -0.049225 0.101788
-0.13125 -0.0492269 0.101777
-0.128125 -0.0492289 0.101765
-0.125 -0.049231 0.101754
-0.121875 -0.049233 0.101743
-0.11875 -0.0492351 0.101732
-0.115625 -0.0492373 0.101721
-0.1125 -0.0492394 0.101709
-0.109375 -0.0492416 0.101698
-0.10625 -0.0492438 0.101687
-0.103125 -0.049246 0.101677
-0.1 -0.0492483 0.101666
-0.096875 -0.0492506 0.101655
-0.09375 -0.0492529 0.101644
-0.090625 -0.0492553 0.101634
-0.0875 -0.0492577 0.101623
-0.084375 -0.0492602 0.101613
-0.08125 -0.0492627 0.101602
-0.078125 -0.0492652 0.101592
-0.075 -0.0492676 0.101582
-0.071875 -0.0492702 0.101571
-0.06875 -0.0492728 0.101561
-0.065625 -0.0492753 0.101551
-0.0625 -0.0492779 0.101541
-0.0619947 -0.0492784 0.101539
-0.0614895 -0.0492788 0.101538
-0.0609842 -0.0492792 0.101536
-0.060479 -0.0492796 0.101535
-0.059974 -0.04928 0.101533
-0.0573542 -0.0492822 0.101525
-0.0547344 -0.0492844 0.101516
-0.0521146 -0.0492866 0.101508
-0.0494948 -0.0492888 0.1015
-0.046875 -0.049291 0.101492
-0.04375 -0.0492936 0.101482
-0.040625 -0.0492961 0.101472
-0.0375 -0.0492987 0.101463
-0.034375 -0.0493013 0.101453
-0.03125 -0.0493038 0.101444
-0.025 -0.0493089 0.101425
-0.01875 -0.0493141 0.101407
-0.0125 -0.0493192 0.101389
-0.00624999 -0.0493245 0.101372
1.24921e-12 -0.0493298 0.101354
0.00625 -0.0493352 0.101337
0.0125 -0.0493406 0.10132
0.01875 -0.049346 0.101303
0.025 -0.0493515 0.101287
0.03125 -0.0493571 0.10127
0.0329391 -0.0493586 0.101266
0.0346282 -0.0493601 0.101261
0.0363173 -0.0493616 0.101257
0.0380064 -0.049363 0.101252
0.039699 -0.0493645 0.101248
0.0411342 -0.0493658 0.101244
0.0425694 -0.0493671 0.101241
0.0440046 -0.0493683 0.101237
0.0454398 -0.0493696 0.101233
0.046875 -0.0493709 0.10123
0.05 -0.0493736 0.101222
0.053125 -0.0493763 0.101214
0.05625 -0.0493791 0.101206
0.059375 -0.0493819 0.101198
0.0625 -0.0493848 0.10119
0.065625 -0.0493877 0.101182
0.06875 -0.0493906 0.101174
0.071875 -0.0493935 0.101165
0.075 -0.0493964 0.101157
0.078125 -0.0493994 0.101149
0.08125 -0.0494023 0.101141
0.084375 -0.0494053 0.101133
0.0875 -0.0494082 0.101125
0.090625 -0.0494112 0.101117
0.09375 -0.0494141 0.101109
0.096875 -0.0494171 0.101101
0.1 -0.0494201 0.101093
0.103125 -0.0494231 0.101086
0.10625 -0.0494261 0.101078
0.109375 -0.0494291 0.10107
0.1125 -0.0494321 0.101063
0.115625 -0.0494351 0.101055
0.11875 -0.0494381 0.101047
0.121875 -0.049441 0.10104
0.125 -0.049444 0.101032
0.128125 -0.0494471 0.101025
0.13125 -0.0494501 0.101017
0.134375 -0.0494531 0.10101
0.1375 -0.0494562 0.101003
0.140625 -0.0494592 0.100995
0.14375 -0.0494623 0.100988
0.146875 -0.0494653 0.100981
0.15 -0.0494684 0.100974
0.153125 -0.0494714 0.100966
0.15625 -0.0494745 0.100959
0.159375 -0.0494778 0.100952
0.1625 -0.0494809 0.100945
0.165625 -0.049484 0.100938
0.16875 -0.0494872 0.100931
0.171875 -0.0494903 0.100925
0.175 -0.0494935 0.100918
0.178125 -0.0494966 0.100911
0.18125 -0.0494997 0.100904
0.184375 -0.0495028 0.100897
0.1875 -0.0495059 0.100891
0.19375 -0.0495124 0.100877
0.2 -0.0495189 0.100864
0.20625 -0.0495254 0.100851
0.2125 -0.049532 0.100838
0.21875 -0.0495386 0.100825
0.225 -0.0495456 0.100813
0.23125 -0.0495525 0.100801
0.2375 -0.0495598 0.100789
0.24375 -0.0495677 0.100778
0.25 -0.0495761 0.100767
0.25625 -0.0495852 0.100757
0.2625 -0.0495941 0.100746
0.26875 -0.0496031 0.100736
0.275 -0.0496121 0.100726
0.28125 -0.0496212 0.100717
0.2875 -0.0496311 0.100707
0.29375 -0.0496405 0.100698
0.3 -0.0496499 0.100689
0.30625 -0.0496595 0.100681
0.3125 -0.0496691 0.100672
0.31875 -0.0496796 0.100664
0.325 -0.0496894 0.100656
0.33125 -0.0496992 0.100648
0.3375 -0.049709 0.100641
0.34375 -0.0497191 0.100633
0.35 -0.0497301 0.100626
0.35625 -0.0497404 0.100619
0.3625 -0.0497505 0.100612
0.36875 -0.0497606 0.100606
0.375 -0.0497713 0.100599
0.38125 -0.049783 0.100593
0.3875 -0.049794 0.100587
0.39375 -0.0498047 0.100581
0.4 -0.0498155 0.100576
0.40625 -0.0498268 0.100571
0.4125 -0.0498391 0.100565
0.41875 -0.0498508 0.10056
0.425 -0.0498622 0.100556
0.43125 -0.0498738 0.100551
0.4375 -0.049886 0.100547
0.44375 -0.0498991 0.100542
0.45 -0.0499114 0.100538
0.45625 -0.0499233 0.100535
0.4625 -0.0499352 0.100533
0.46875 -0.0499478 0.10053
0.475 -0.0499612 0.100526
0.48125 -0.049974 0.100522
0.4875 -0.0499864 0.10052
0.49375 -0.0499989 0.100517
0.5 -0.0500121 0.100515
0.50625 -0.0500261 0.100511
0.5125 -0.0500395 0.10051
0.51875 -0.0500522 0.100509
0.525 -0.0500649 0.100508
0.53125 -0.0500782 0.100506
0.5375 -0.0500923 0.100504
0.54375 -0.0501057 0.100502
0.55 -0.0501186 0.100501
0.55625 -0.0501316 0.100501
0.5625 -0.0501453 0.100499
0.56875 -0.05016 0.100498
0.575 -0.0501739 0.100497
0.58125 -0.0501871 0.100498
0.5875 -0.0502004 0.100499
0.59375 -0.0502142 0.100499
0.6 -0.0502288 0.100498
0.60625 -0.0502426 0.100498
0.6125 -0.0502557 0.100499
0.61875 -0.0502689 0.1005
0.625 -0.050283 0.100501
0.63125 -0.050298 0.100501
0.6375 -0.0503123 0.100502
0.64375 -0.0503259 0.100504
0.65 -0.0503395 0.100507
0.65625 -0.0503536 0.100509
0.6625 -0.0503684 0.100509
0.66875 -0.0503826 0.100511
0.675 -0.0503964 0.100513
0.68125 -0.0504101 0.100516
0.6875 -0.0504246 0.100518
0.69375 -0.0504398 0.100519
0.7 -0.0504541 0.100522
0.70625 -0.0504677 0.100525
0.7125 -0.0504812 0.100529
0.71875 -0.0504954 0.100532
0.725 -0.0505104 0.100534
0.73125 -0.0505247 0.100537
0.7375 -0.0505386 0.100541
0.74375 -0.0505525 0.100544
0.75 -0.0505672 0.100548
0.75625 -0.050583 0.10055
0.7625 -0.0505979 0.100554
0.76875 -0.0506121 0.100559
0.775 -0.0506263 0.100564
0.78125 -0.0506411 0.100568
0.7875 -0.0506565 0.100572
0.79375 -0.0506715 0.100576
0.8 -0.0506861 0.100581
0.80625 -0.0507007 0.100585
0.8125 -0.050716 0.10059
0.81875 -0.0507322 0.100594
0.825 -0.0507475 0.100599
0.83125 -0.050762 0.100605
0.8375 -0.0507765 0.100611
0.84375 -0.0507914 0.100617
0.85 -0.0508068 0.100621
0.85625 -0.0508216 0.100626
0.8625 -0.050836 0.100632
0.86875 -0.0508504 0.100638
0.875 -0.0508654 0.100643
0.88125 -0.0508815 0.100648
0.8875 -0.0508967 0.100653
0.89375 -0.0509112 0.100661
0.9 -0.0509256 0.100668
0.90625 -0.0509404 0.100674
0.9125 -0.0509557 0.100679
0.91875 -0.0509704 0.100685
0.925 -0.0509847 0.100692
0.93125 -0.0509989 0.100699
0.9375 -0.0510138 0.100705
0.94375 -0.0510297 0.10071
0.95 -0.0510448 0.100717
0.95625 -0.0510592 0.100725
0.9625 -0.0510736 0.100734
0.96875 -0.0510882 0.100741
0.975 -0.0511031 0.100747
0.98125 -0.0511176 0.100754
0.9875 -0.0511319 0.100762
0.99375 -0.0511461 0.10077
1 -0.0511609 0.100777
1.00625 -0.0511766 0.100783
1.0125 -0.0511913 0.100791
1.01875 -0.0512054 0.1008
1.025 -0.0512194 0.100809
1.03125 -0.0512335 0.100817
1.0375 -0.0512479 0.100824
1.04375 -0.0512619 0.100832
1.05 -0.0512755 0.10084
1.05625 -0.0512892 0.100849
1.0625 -0.0513032 0.100857
1.06875 -0.0513182 0.100864
1.075 -0.0513322 0.100873
1.08125 -0.0513458 0.100883
1.0875 -0.0513594 0.100893
1.09375 -0.0513731 0.100902
1.1 -0.0513872 0.10091
1.10625 -0.0514009 0.100918
1.1125 -0.0514143 0.100927
1.11875 -0.0514276 0.100936
1.125 -0.051441 0.100945
1.13125 -0.0514551 0.100953
1.1375 -0.0514682 0.100962
1.14375 -0.0514814 0.100971
1.15 -0.0514948 0.100981
1.15625 -0.0515082 0.10099
1.1625 -0.0515222 0.100998
1.16875 -0.0515362 0.101007
1.175 -0.0515502 0.101015
1.18125 -0.0515642 0.101024
1.1875 -0.0515782 0.101032
1.19375 -0.0515924 0.10104
1.2 -0.0516063 0.101049
1.20625 -0.0516202 0.101058
[...]
POINT_DATA 11000
 FIELD attributes 1
U 3 11000 float
21.0149 	0.041192 	-0.139719 21.0151 	0.0412056 	-0.139706 21.0152 	0.0412191 	-0.139693 21.0154 	0.0412326 	-0.139679 21.0155 	0.0412461 	-0.139666 21.0157 	0.0412597 	-0.139653 21.0256 	0.0370352 	-0.134765 21.0338 	0.0373673 	-0.134802 21.0411 	0.03767 	-0.133893 21.0483 	0.0379966 	-0.132972 21.055 	0.0418098 	-0.137344 21.0688 	0.0387744 	-0.132094 21.0793 	0.0387209 	-0.131183 21.0898 	0.0387009 	-0.130332 21.1 	0.0387032 	-0.130265 21.1067 	0.04154 	-0.134079 21.1191 	0.0382158 	-0.129267 21.1291 	0.0377587 	-0.128786 21.1392 	0.0373789 	-0.128216 21.1492 	0.0370578 	-0.127777 21.1565 	0.0389456 	-0.132213 21.1683 	0.0360381 	-0.126769 21.1781 	0.035377 	-0.126106 21.1879 	0.0347843 	-0.125591 21.1977 	0.0342912 	-0.125147 21.2054 	0.0361687 	-0.128949 21.2171 	0.0329347 	-0.123998 21.2269 	0.0321413 	-0.123093 21.2366 	0.0314132 	-0.122523 21.2463 	0.0307723 	-0.122155 21.254 	0.0321045 	-0.126346 21.2653 	0.0292172 	-0.120824 21.2749 	0.028326 	-0.119961 21.2844 	0.0275297 	-0.11932 21.2939 	0.0268399 	-0.118665 21.3016 	0.0283012 	-0.12213 21.3127 	0.025097 	-0.117203 21.3222 	0.0240564 	-0.116021 21.3315 	0.0231457 	-0.11534 21.3406 	0.0223387 	-0.114907 21.3481 	0.0233063 	-0.118704 21.3584 	0.0204694 	-0.113322 21.3674 	0.0193141 	-0.112313 21.3764 	0.0182614 	-0.111571 21.3854 	0.0173307 	-0.1107 21.3929 	0.0182724 	-0.113628 21.4036 	0.0148566 	-0.108772 21.4121 	0.0136145 	-0.107306 21.4205 	0.0124779 	-0.106462 21.4287 	0.0114666 	-0.105879 21.4349 	0.0122996 	-0.109138 21.4436 	0.00947462 	-0.104092 21.4516 	0.00816652 	-0.102905 21.4594 	0.00696368 	-0.101986 21.4675 	0.0057645 	-0.100637 21.4746 	0.00620071 	-0.102619 21.4851 	0.00231506 	-0.0973933 21.4926 	0.000711787 	-0.0963541 21.4998 	-0.000723379 	-0.0955094 21.5081 	-0.00191701 	-0.0904385 21.5138 	-0.00268317 	-0.0910069 21.5163 	-0.00298048 	-0.0920804 21.519 	-0.00292838 	-0.0915009 21.5217 	-0.00287963 	-0.0909621 21.5243 	-0.00285297 	-0.0906912 21.5274 	-0.00273224 	-0.0898022 21.5308 	-0.00252758 	-0.0887775 21.534 	-0.00260897 	-0.0881884 21.5375 	-0.00325473 	-0.0882106 21.541 	-0.00398655 	-0.088326 21.5444 	-0.00477557 	-0.0884056 21.5473 	-0.00533038 	-0.0881616 21.5501 	-0.0060055 	-0.0879076 21.5529 	-0.0066354 	-0.0876444 21.5558 	-0.00696516 	-0.0873195 21.5586 	-0.0074425 	-0.0869004 21.5617 	-0.00778314 	-0.0868061 21.5647 	-0.0082224 	-0.0865837 21.5683 	-0.00854936 	-0.0869054 21.5721 	-0.0088596 	-0.087308 21.5753 	-0.00948259 	-0.0869577 21.5779 	-0.0100677 	-0.0869729 21.5801 	-0.0106191 	-0.0871737 21.5824 	-0.0111286 	-0.0862364 21.5842 	-0.0117144 	-0.0838555 21.5858 	-0.0123198 	-0.0818314 21.5862 	-0.0125283 	-0.0810955 21.587 	-0.0127667 	-0.0805758 21.5878 	-0.0130051 	-0.0800562 21.5886 	-0.0132435 	-0.0795367 21.5897 	-0.0131858 	-0.0794126 21.5908 	-0.0133533 	-0.0788147 21.5919 	-0.0135539 	-0.0785012 21.593 	-0.0137545 	-0.0781877 21.5941 	-0.0139551 	-0.0778743 21.5954 	-0.0144307 	-0.0778107 21.5963 	-0.0145345 	-0.0771748 21.5975 	-0.0147254 	-0.0767852 21.5987 	-0.0149163 	-0.0763956 21.5998 	-0.0151073 	-0.0760061 21.601 	-0.0151721 	-0.0758982 21.6022 	-0.0153065 	-0.0751704 21.6034 	-0.0155733 	-0.0747134 21.6046 	-0.0158401 	-0.0742566 21.6058 	-0.016107 	-0.0737998 21.6073 	-0.0166441 	-0.0735527 21.6083 	-0.0167301 	-0.0729145 21.6096 	-0.0169138 	-0.0725101 21.6108 	-0.0170976 	-0.0721058 21.6121 	-0.0172814 	-0.0717015 21.6132 	-0.0172852 	-0.0713409 21.6146 	-0.0175932 	-0.0709373 21.6158 	-0.0177145 	-0.0704765 21.6169 	-0.0178358 	-0.0700157 21.6181 	-0.0179572 	-0.0695551 21.6193 	-0.0181469 	-0.069144 21.6195 	-0.0181219 	-0.069043 21.6197 	-0.0181219 	-0.0689865 21.6199 	-0.0181219 	-0.0689299 21.6201 	-0.0181219 	-0.0688734 21.6202 	-0.0181219 	-0.0688168 21.6212 	-0.0180998 	-0.0684963 21.6222 	-0.0180777 	-0.0681757 21.6231 	-0.0180556 	-0.0678552 21.6241 	-0.0180335 	-0.0675347 21.6248 	-0.0177406 	-0.067186 21.6261 	-0.0179032 	-0.0668146 21.627 	-0.017815 	-0.0661103 21.6279 	-0.0177269 	-0.0654061 21.6289 	-0.0176387 	-0.0647019 21.6299 	-0.0176483 	-0.0640683 21.6321 	-0.0177647 	-0.0629451 21.6342 	-0.0178878 	-0.061776 21.6363 	-0.0181571 	-0.0611033 21.638 	-0.018379 	-0.0602429 21.6394 	-0.0186966 	-0.0592452 21.6414 	-0.0187601 	-0.0588535 21.6431 	-0.0188436 	-0.0583715 21.645 	-0.0190526 	-0.0579022 21.6467 	-0.019084 	-0.0574008 21.6484 	-0.0192189 	-0.0569662 21.6488 	-0.0192217 	-0.0566757 21.6491 	-0.0191929 	-0.0564083 21.6494 	-0.0191641 	-0.056141 21.6497 	-0.0191354 	-0.0558736 21.65 	-0.0191065 	-0.0556058 21.6503 	-0.0190713 	-0.0554262 21.6506 	-0.0190361 	-0.0552466 21.6509 	-0.0190008 	-0.0550671 21.6511 	-0.0189142 	-0.0548746 21.6513 	-0.0189202 	-0.0545916 21.6524 	-0.019097 	-0.0549147 21.6536 	-0.019325 	-0.0553179 21.6547 	-0.0195529 	-0.0557212 21.6559 	-0.0197808 	-0.0561244 21.6572 	-0.0202396 	-0.0563364 21.6578 	-0.0200437 	-0.0564088 21.6586 	-0.020133 	-0.0563879 21.6594 	-0.0202223 	-0.056367 21.6602 	-0.0203117 	-0.0563461 21.661 	-0.0206357 	-0.0558935 21.6617 	-0.0203346 	-0.0558571 21.6623 	-0.0203527 	-0.0555452 21.663 	-0.0203709 	-0.0552333 21.6636 	-0.020389 	-0.0549214 21.6646 	-0.0211261 	-0.054353 21.665 	-0.0206613 	-0.0543086 21.6656 	-0.0206621 	-0.0540233 21.6662 	-0.020663 	-0.053738 21.6668 	-0.0206639 	-0.0534527 21.6674 	-0.020905 	-0.0529224 21.6681 	-0.0207447 	-0.0528763 21.6687 	-0.0207244 	-0.0526238 21.6692 	-0.0207041 	-0.0523714 21.6698 	-0.0206839 	-0.052119 21.6707 	-0.0213496 	-0.0516207 21.671 	-0.0208331 	-0.051659 21.6717 	-0.0209055 	-0.0513978 21.6723 	-0.0209779 	-0.0511367 21.673 	-0.0210503 	-0.0508756 21.6736 	-0.0213344 	-0.0502518 21.6742 	-0.0211203 	-0.050315 21.6749 	-0.0212247 	-0.0499983 21.6755 	-0.0213291 	-0.0496816 21.6762 	-0.0214335 	-0.0493649 21.6773 	-0.0223247 	-0.0487134 21.6777 	-0.021785 	-0.0485873 21.6783 	-0.0217759 	-0.0482795 21.6789 	-0.0217668 	-0.0479717 21.6795 	-0.0217578 	-0.047664 21.6799 	-0.0219634 	-0.0470211 21.6803 	-0.0215639 	-0.0472534 21.6809 	-0.0215778 	-0.0471416 21.6815 	-0.0215917 	-0.0470297 21.6821 	-0.0216056 	-0.0469179 21.6831 	-0.0225413 	-0.0462809 21.6846 	-0.0225318 	-0.0459996 21.6861 	-0.0225302 	-0.0459569 21.6872 	-0.0228555 	-0.0449071 21.6877 	-0.02299 	-0.0435775 21.689 	-0.0243654 	-0.0424597 21.6894 	-0.0238588 	-0.0416249 21.691 	-0.0254755 	-0.0404276 21.6927 	-0.0273064 	-0.0391582 21.6944 	-0.0291374 	-0.037889 21.6964 	-0.0315361 	-0.0367759 21.6966 	-0.030915 	-0.0358648 21.6971 	-0.0311034 	-0.0349577 21.6975 	-0.0313107 	-0.0340691 21.6985 	-0.0317944 	-0.0334523 21.7005 	-0.0342022 	-0.033525 21.7004 	-0.0326222 	-0.0315413 21.701 	-0.0328117 	-0.0305911 21.7018 	-0.0331408 	-0.0299139 21.7025 	-0.0334783 	-0.0292531 21.7037 	-0.0364056 	-0.0297677 21.7041 	-0.0341691 	-0.0275682 21.7046 	-0.03394 	-0.0265236 21.705 	-0.0340337 	-0.0256669 21.7058 	-0.0351542 	-0.0255991 21.7071 	-0.0379868 	-0.0267924 21.7072 	-0.0358399 	-0.0242077 21.7075 	-0.0349882 	-0.0226265 21.708 	-0.0353387 	-0.0219503 21.7085 	-0.03713 	-0.0221776 21.7088 	-0.0404037 	-0.0233355 21.7099 	-0.0381959 	-0.0203086 21.7106 	-0.0371337 	-0.0182749 21.711 	-0.0375337 	-0.0175091 21.7114 	-0.0395574 	-0.0185327 21.7118 	-0.0424999 	-0.0205597 21.7122 	-0.040756 	-0.0177138 21.7125 	-0.0396632 	-0.0154856 21.7127 	-0.0400711 	-0.0147096 21.7124 	-0.0424135 	-0.0154423 21.7119 	-0.0455552 	-0.016798 21.713 	-0.0429554 	-0.0130326 21.7139 	-0.041115 	-0.0100718 21.7139 	-0.0413728 	-0.00933223 21.7138 	-0.0436719 	-0.0112268 21.7136 	-0.0466219 	-0.0139646 21.7141 	-0.0446017 	-0.0111777 21.7144 	-0.0430803 	-0.0088852 21.7143 	-0.0432835 	-0.00823809 21.7132 	-0.0457914 	-0.00941686 21.7118 	-0.048941 	-0.0111036 21.7133 	-0.0462434 	-0.00686207 21.7144 	-0.0441514 	-0.00340002 21.7143 	-0.0442583 	-0.00276518 21.7136 	-0.0462793 	-0.00519633 21.7127 	-0.0488146 	-0.00844456 21.7135 	-0.0466295 	-0.00560301 21.7141 	-0.0449448 	-0.0032409 21.7139 	-0.0450575 	-0.0025529 21.7122 	-0.0477247 	-0.00390773 21.7102 	-0.0510456 	-0.00578496 21.7119 	-0.0482189 	-0.00122661 21.7132 	-0.0459564 	0.00256845 21.7129 	-0.0460133 	0.00323045 21.7118 	-0.0480338 	0.000627973 21.7105 	-0.0505132 	-0.0027592 21.7114 	-0.0479187 	0.000131345 21.712 	-0.0458359 	0.00256843 21.7117 	-0.0457892 	0.00322481 21.7096 	-0.0487274 	0.00173354 21.7071 	-0.0523861 	-0.000275683 21.7091 	-0.0495547 	0.00446291 21.7106 	-0.0472674 	0.00839061 21.7102 	-0.0472347 	0.0089635 21.7086 	-0.0490246 	0.00616937 21.7068 	-0.0512568 	0.00256358 21.7078 	-0.0493535 	0.00557639 21.7085 	-0.0478309 	0.00809309 21.7081 	-0.0477691 	0.00862471 21.7056 	-0.0501417 	0.00680822 21.7027 	-0.0531089 	0.0044188 21.7048 	-0.0496634 	0.00905022 21.7064 	-0.0469109 	0.0128587 21.7059 	-0.0469826 	0.0133183 21.7042 	-0.0492646 	0.0105528 21.702 	-0.052077 	0.00697754 21.7033 	-0.0498705 	0.00994523 21.7043 	-0.0481269 	0.0124006 21.7037 	-0.0482031 	0.0128403 21.7009 	-0.0511355 	0.0110135 21.6974 	-0.0547838 	0.00861918 21.6998 	-0.0517182 	0.013459 21.7016 	-0.0492935 	0.0174144 21.7011 	-0.0494023 	0.0178786 21.699 	-0.0512854 	0.0149284 21.6964 	-0.0536314 	0.0111035 21.6977 	-0.0519741 	0.0142736 21.6985 	-0.0506705 	0.0168736 21.6979 	-0.0506793 	0.0172966 21.6948 	-0.0531372 	0.0152759 21.691 	-0.0562328 	0.0126194 21.6934 	-0.0530395 	0.017579 21.6952 	-0.0504742 	0.021567 21.6945 	-0.0502794 	0.021893 21.6924 	-0.0516581 	0.0187867 21.6898 	-0.0534575 	0.0147457 21.6912 	-0.0514882 	0.0177742 21.6921 	-0.0499238 	0.0202173 21.6915 	-0.0497818 	0.0205512 21.6881 	-0.0523783 	0.0184878 21.6841 	-0.0557333 	0.015761 21.6867 	-0.052685 	0.020719 21.6887 	-0.0502895 	0.0246202 21.6881 	-0.0501476 	0.0248782 21.6859 	-0.0513155 	0.021832 21.6833 	-0.0528747 	0.0177753 21.6848 	-0.051036 	0.0209161 21.6857 	-0.0496028 	0.0233818 21.6852 	-0.0493994 	0.0237014 21.6818 	-0.0518225 	0.0216449 21.6775 	-0.0550788 	0.0188352 21.6805 	-0.0522015 	0.0241467 21.6826 	-0.0500369 	0.0281237 21.6821 	-0.0498471 	0.0284081 21.6802 	-0.0506432 	0.0254166 21.6776 	-0.0518201 	0.0210856 21.679 	-0.0504143 	0.0243112 21.6799 	-0.0494171 	0.0266369 21.6793 	-0.0493085 	0.0269674 21.6758 	-0.0513198 	0.0250879 21.6711 	-0.0543 	0.0221987 21.675 	-0.0510743 	0.0275134 21.6772 	-0.0489402 	0.030836 21.6767 	-0.04859 	0.030906 21.6748 	-0.0489779 	0.0285528 21.6718 	-0.0499725 	0.0241322 21.6736 	-0.0482943 	0.0274106 21.6741 	-0.0473905 	0.0291735 21.6735 	-0.0472132 	0.0294828 21.6705 	-0.0486647 	0.0282283 21.6649 	-0.0518787 	0.0252818 21.6688 	-0.0487906 	0.0308904 21.6703 	-0.04722 	0.0336856 21.6695 	-0.0470333 	0.0339169 21.6675 	-0.0475542 	0.0317729 21.6641 	-0.0487611 	0.026898 21.6666 	-0.0473451 	0.0299305 21.667 	-0.0466254 	0.0308701 21.6664 	-0.0462562 	0.0306482 21.665 	-0.0462508 	0.0300639 21.6587 	-0.0488022 	0.0269326 21.6638 	-0.0455315 	0.0324677 21.6629 	-0.0458155 	0.0325785 21.6618 	-0.0461822 	0.0325631 21.6608 	-0.0464753 	0.0325087 21.6564 	-0.0486035 	0.0273358 21.6583 	-0.0486123 	0.0301486 21.6573 	-0.0486073 	0.0300168 21.6562 	-0.0484819 	0.0297234 21.6552 	-0.0483565 	0.02943 21.6513 	-0.0491735 	0.0279337 21.6529 	-0.0482186 	0.0300637 21.6518 	-0.0480742 	0.0303465 21.6507 	-0.0479298 	0.0306292 21.6497 	-0.0476862 	0.0306779 21.6477 	-0.0474285 	0.0293358 21.6477 	-0.0468826 	0.030079 21.6466 	-0.0465184 	0.0299998 21.6452 	-0.0462828 	0.030009 21.6439 	-0.0460471 	0.0300182 21.6401 	-0.0466566 	0.0290398 21.6412 	-0.0452305 	0.0300135 21.64 	-0.0447791 	0.0300656 21.6387 	-0.0443276 	0.0301177 21.6373 	-0.0439072 	0.0303095 21.6332 	-0.0447256 	0.0296053 21.6356 	-0.042063 	0.0300213 21.6356 	-0.0403982 	0.0295974 21.6341 	-0.0400248 	0.0297362 21.6325 	-0.0401287 	0.0292979 21.6288 	-0.0410591 	0.0278733 21.6293 	-0.0398967 	0.0287656 21.6282 	-0.0392505 	0.0286207 21.6281 	-0.0379376 	0.0280062 21.6278 	-0.0369607 	0.028168 21.6269 	-0.0358118 	0.0276618 21.6268 	-0.0352572 	0.0281941 21.6268 	-0.034224 	0.0281137 21.6264 	-0.0334919 	0.0285614 21.6253 	-0.0330151 	0.0287957 21.6241 	-0.0321092 	0.0281749 21.6244 	-0.031243 	0.0286202 21.625 	-0.0296918 	0.0283975 21.6239 	-0.0291107 	0.0285591 21.623 	-0.0285522 	0.0289694 21.6227 	-0.0270449 	0.0286086 21.6224 	-0.0267566 	0.0290729 21.6228 	-0.0255255 	0.0289226 21.6216 	-0.0249568 	0.029077 21.6203 	-0.024664 	0.029547 21.6199 	-0.0232465 	0.0293757 21.6196 	-0.0229862 	0.0298313 21.6201 	-0.0218402 	0.0298901 21.6182 	-0.0220677 	0.0305125 21.6168 	-0.0217929 	0.0308518 21.6151 	-0.0211858 	0.0305857 21.6147 	-0.0203103 	0.031156 21.6143 	-0.0192681 	0.0312913 21.6154 	-0.0176243 	0.0313008 21.6141 	-0.0170943 	0.0317402 21.6117 	-0.0168064 	0.0318493 21.613 	-0.01511 	0.03221 21.6138 	-0.0134689 	0.0322618 21.6125 	-0.01291 	0.0324304 21.6095 	-0.0132555 	0.0331621 21.6074 	-0.012774 	0.0335844 21.6067 	-0.0126766 	0.0342224 21.6068 	-0.0117951 	0.0346 21.6052 	-0.0115154 	0.0347542 21.6018 	-0.0121427 	0.0348562 21.5971 	-0.0132458 	0.0348227 21.5966 	-0.0124234 	0.0350503 21.5963 	-0.0115152 	0.0351808 21.5987 	-0.00938366 	0.0351814 21.5944 	-0.0104241 	0.0352708 21.5886 	-0.0121094 	0.0353023 21.5872 	-0.011611 	0.0358947 21.585 	-0.0115643 	0.0365181 21.5821 	-0.0121214 	0.0371099 21.5792 	-0.0126783 	0.0377019 21.5755 	-0.0135129 	0.0383369 21.5747 	-0.0128816 	0.039071 21.5732 	-0.0127103 	0.0393506 21.5716 	-0.0125389 	0.0396302 21.5703 	-0.012198 	0.0399545 21.5697 	-0.0115416 	0.0399962 21.5672 	-0.0117596 	0.0397676 21.5658 	-0.0118152 	0.039631 21.5652 	-0.0116861 	0.03964 21.5646 	-0.0115569 	0.039649 21.5629 	-0.0122079 	0.0394902 21.556 	-0.0135881 	0.0394283 21.5526 	-0.0140774 	0.0388988 21.5484 	-0.0142315 	0.0385933 21.542 	-0.0145952 	0.0384371 21.5357 	-0.0181791 	0.0388633 21.5294 	-0.0177089 	0.038118 21.5106 	-0.0246226 	0.038091 21.5049 	-0.0251928 	0.0378203 21.4991 	-0.0257632 	0.0375495 21.491 	-0.029002 	0.0377414 21.4934 	-0.0255979 	0.03834 21.4902 	-0.025564 	0.0383588 21.487 	-0.0255302 	0.0383775 21.4824 	-0.0263671 	0.0387172 21.4717 	-0.031453 	0.0391565 21.4608 	-0.0336017 	0.0397402 21.4455 	-0.0367134 	0.0404186 21.4313 	-0.0401374 	0.0412908 21.4006 	-0.0430468 	0.0440976 21.3668 	-0.0459179 	0.0472342 21.3795 	-0.0437508 	0.0459163 21.3922 	-0.0415842 	0.0445979 21.3816 	-0.0422117 	0.0456258 21.3496 	-0.0453339 	0.0503305 21.3175 	-0.048455 	0.0550378 21.3305 	-0.0457521 	0.0492189 21.3434 	-0.0430504 	0.0433969 21.3328 	-0.0432728 	0.0433506 21.3004 	-0.0449756 	0.0473032 21.2679 	-0.0466775 	0.0512575 21.2405 	-0.0481992 	0.0505339 21.2154 	-0.0486956 	0.0516065 21.1904 	-0.0491219 	0.0528022 21.1638 	-0.04992 	0.0543969 21.1086 	-0.0566252 	0.0602783 21.1219 	-0.0497822 	0.053875 21.1031 	-0.0494675 	0.0531444 21.0845 	-0.049127 	0.0524422 21.0658 	-0.0487868 	0.0517396 21.0232 	-0.0548114 	0.0562845 21.0289 	-0.0486554 	0.0492212 21.0082 	-0.0485012 	0.0493919 20.9876 	-0.0483469 	0.0495627 20.9674 	-0.0481855 	0.0496856 20.9278 	-0.0527723 	0.0524118 20.8989 	-0.052416 	0.0479754 20.871 	-0.0520094 	0.0463311 20.8432 	-0.0516029 	0.0446856 20.8154 	-0.0511966 	0.043039 20.7873 	-0.0506261 	0.041926 20.7782 	-0.0502765 	0.0414226 20.7692 	-0.0499269 	0.040919 20.7629 	-0.0497402 	0.0399323 20.748 	-0.0489502 	0.0393335 20.7185 	-0.0471487 	0.0395063 20.7347 	-0.0483821 	0.0330881 20.6928 	-0.0457045 	0.0282018 20.646 	-0.042635 	0.0236515 20.599 	-0.039558 	0.0190984 20.4975 	-0.0332124 	0.018475 20.5107 	-0.0359353 	0.0165041 20.4745 	-0.0337663 	0.0126425 20.4111 	-0.0299452 	0.00592884 20.3475 	-0.0261105 	-0.000780275 20.2714 	-0.0194277 	-0.00652837 20.2889 	-0.0237604 	-0.00740401 20.2888 	-0.0237644 	-0.00740305 20.2797 	-0.0226027 	-0.00932807 20.2559 	-0.0195602 	-0.0143521 20.213 	-0.0119657 	-0.0186969 20.2363 	-0.0186133 	-0.0188139 20.236 	-0.0186128 	-0.0187817 20.2357 	-0.0186124 	-0.0187496 20.229 	-0.0163903 	-0.0200805 20.1934 	-0.00931994 	-0.0192858 20.2242 	-0.0157232 	-0.0213486 20.2239 	-0.0157302 	-0.0213061 20.2235 	-0.0157373 	-0.0212637 20.2225 	-0.0140757 	-0.0217295 20.1895 	-0.00723453 	-0.0201678 20.2226 	-0.0132038 	-0.0224936 20.2222 	-0.0132171 	-0.0224468 20.2219 	-0.0132305 	-0.0224001 20.2223 	-0.0118326 	-0.0224768 20.189 	-0.00521162 	-0.0202519 20.2237 	-0.0107654 	-0.0227949 20.2233 	-0.0107834 	-0.0227471 20.2229 	-0.0108015 	-0.0226995 20.2236 	-0.00975837 	-0.0225799 20.1945 	0.00243086 	-0.021919 20.2252 	-0.00887195 	-0.0227036 20.2248 	-0.00889314 	-0.0226568 20.2244 	-0.00891437 	-0.02261 20.2246 	-0.00817113 	-0.0224142 20.1937 	0.00426805 	-0.0213178 20.2251 	-0.00743301 	-0.02222 20.2247 	-0.00745596 	-0.0221749 20.2243 	-0.00747894 	-0.0221298 20.224 	-0.0069487 	-0.0218457 20.1917 	0.00559268 	-0.0204969 20.2238 	-0.00624295 	-0.0214711 20.2235 	-0.00626639 	-0.0214287 20.2231 	-0.00628985 	-0.0213864 20.2226 	-0.00585327 	-0.0211564 20.1895 	0.00669205 	-0.0198103 20.2223 	-0.00522821 	-0.0208373 20.2219 	-0.00525187 	-0.020797 20.2215 	-0.00527554 	-0.0207568 20.2209 	-0.00479699 	-0.0205444 20.1867 	0.00790782 	-0.0191668 20.2676 	-0.00139299 	-0.0223645 20.335 	0.00198256 	-0.0252336 20.4024 	0.00536258 	-0.0280973 20.4275 	0.00695403 	-0.0287804 20.4106 	0.0146017 	-0.0275197